Name,SMILES,Solubility,AtomNum,DegFreedom,Dipole,Ghb,Gsasa,Gsolv,HNum,LP,MolWt,NNum,ONum,PiCenters,PiDeloc,Quadrupole,Volume,SASA,Polarizabilty
B-3576,c1cc2ccc3ccc4ccc5cccc6c(c1)c2c3c4c56,-9.0265,22,60.0,0.092,-1.8254200000000002e-07,-0.005345974043,-0.0056267733499999,0,0,264.2361898,0,0,7,12.0,0.0,231.37948591045628,372.782,194.330407
A-5522,O=C1N2c3cccc4cccc(N=C2c5cccc6cccc1c56)c34,-7.204596088,25,69.0,5.557,-0.000105994157,-0.00404959,-0.010783404707,0,2,308.24900110000004,2,1,15,16.0,-0.001,262.31697495203844,418.907,212.340505
A-2636,O=C1OC(=Nc2ccccc12)c3ccc(cc3)C4=Nc5ccccc5C(=O)O4,-6.517040294,28,78.0,0.0,-0.004657043247,0.005767778876,-0.025043270704,0,8,356.2472159,2,4,19,20.0,0.0,292.4648525617629,518.206,227.951114
A-2638,O=C=Nc1ccc(cc1)C(c2ccc(cc2)N=C=O)c3ccc(cc3)N=C=O,-6.565096595,28,78.0,2.411,-0.003231350147,0.011145765204,-0.001629890224,0,3,354.2545142,3,3,28,22.0,0.0,309.1026618682563,537.45,228.40727
B-3580,c1ccc2cc3c4ccccc4c5ccccc5c3cc2c1,-8.2405,22,60.0,0.3989999999999999,-2.4700600000000003e-07,-0.005871033895,-0.006494952572,0,0,264.2361898,0,0,11,16.0,0.0,245.8664302917897,409.395,196.071544
G-964,c1ccc2c(c1)ccc3c2ccc4c5ccccc5ccc43,-7.87,22,60.0,0.726,-3.00074e-07,-0.005899762681,-0.006522551552,0,0,264.2361898,0,0,9,14.0,0.0,239.8709715127531,411.399,195.382531
B-3583,c1ccc2c(c1)ccc3cc4ccc5ccccc5c4cc23,-8.4318,22,60.0,1.328,-3.486400000000001e-07,-0.005898672619,-0.006104856071,0,0,264.2361898,0,0,8,15.0,0.0,240.7096399991206,411.323,195.430728
B-3564,c1ccc2c(c1)ccc3cc4c(ccc5ccccc45)cc23,-8.6679,22,60.0,0.0,-3.2806e-07,-0.005905217559,-0.006098997096,0,0,264.2361898,0,0,8,16.0,0.001,240.71681557345403,411.779,195.429941
C-2526,FC1=CC=C(C=C1)C([N]2C=CN=C2)(C3=CC=CC=C3)C4=C(F)C=CC=C4,-8.4,26,72.0,6.625,-0.000189214244,-0.002310493162,-0.015739708342,0,7,330.2464025,2,0,10,17.0,-0.001,287.75293483490844,450.997,212.002616
B-3024,FC(F)(F)c1cccc(c1)C(n2cncn2)(c3ccccc3)c4ccccc4,-8.402999999999999,28,78.0,5.131,-0.0002561608929999,-0.00121716311,-0.01376867443,0,11,363.2515089,3,0,12,18.0,0.0,305.3171916728917,476.508,220.847417
A-5668,Cc1ccc2Nc3cc4C(=O)c5cc(C)ccc5Nc4cc3C(=O)c2c1,-7.783778559,26,72.0,0.0139999999999999,-0.003021821964,0.002001615628,-0.020623069237,0,8,324.2484061,2,2,8,17.0,0.0,280.80138661125187,467.007,217.241354
B-2217,O=C1C=CC(C=C1)=NNc2ccc(N=Nc3ccccc3)c4ccccc24,-6.0092,27,75.0,6.47,-0.002207571084,-0.002709454845,-0.036952874588,0,2,336.2624076,4,1,20,21.0,0.0,297.71676435127955,546.052,224.167285
A-1944,O[S](=O)(=O)c1ccc(cc1)N=Nc2ccc(N\N=C3/C(=O)C=Cc4ccccc34)cc2,-4.65844166,31,87.0,24.918000000000003,-0.0154028801689999,0.0101042002139999,-0.058795321723,0,8,416.3254097,4,4,20,24.0,0.0,338.536103987571,569.062,263.430265
E-1268,c1ccc2OC(=O)C(C(C(=O)OCC)C3=C(O)c4ccccc4OC3=O)=C(O)c2c1,-3.66,30,84.0,13.088,-0.005380525294,0.014196354288,-0.0380977726109999,0,14,392.2314292,0,8,22,22.0,-0.001,310.4891678498952,511.681,234.576308
B-1156,CCOC(=O)C(C1=C(O)Oc2ccccc2C1=O)C3=C(O)Oc4ccccc4C3=O,-3.4264,30,84.0,13.197,-0.005370242553,0.014200961639,-0.037962503641,0,13,392.2314292,0,8,23,20.0,0.0,310.49389486495613,511.651,234.578585
B-3498,CO\C=C(C(=O)OC)/c1ccccc1Oc2cc(Oc3ccccc3C#N)ncn2,-4.8276,30,84.0,4.189,-0.002252261332,-0.002046501905,-0.028780912987,0,9,386.253324,3,5,19,21.0,0.0,334.9300208785686,542.212,241.836033
A-1309,CC(=O)Nc1cccc(Nc2cc(c(N)c3C(=O)c4ccccc4C(=O)c23)[S]([O-])(=O)=O)c1,-4.307910861,32,90.0,4.138999999999999,-0.011427944102,0.013530848762,-0.085878167847,0,16,434.3175164,3,6,17,19.0,0.0,346.2163170921016,529.592,267.681877
A-4215,Nc1ccc2c([O-])c(N=Nc3ccc(cc3)N=Nc4ccc(cc4)[S]([O-])(=O)=O)c(cc2c1)[S](O)(=O)=O,-0.460354084,36,102.0,26.299,-0.029265840277,0.021474511866,-0.200593085225,0,18,510.39511510000006,5,7,31,24.0,0.0,395.4732598071452,694.947,307.07569900000004
G-549,CC1(C)C(C=C(Cl)Cl)C1C(=O)OC(C#N)c2ccc(F)c(Oc3ccccc3)c2,-7.3370000000000015,29,81.0,8.583,-0.000360096632,0.002199315879,-0.0173811599429999,0,14,416.1453861,1,3,20,19.0,0.0,344.54293592333283,584.2919999999999,249.921449
A-347,O[S](=O)(=O)c1cccc2cc(Nc3ccccc3)cc(Nc4ccccc4)c12,-4.672502907,28,78.0,9.86,-0.01121000417,0.005063504058,-0.036812990569,0,8,372.3125984,2,3,19,21.0,0.0,310.92048334569785,523.819,242.931217
B-3497,CC1(OC(=O)N(Nc2ccccc2)C1=O)c3ccc(Oc4ccccc4)cc3,-6.8573,28,78.0,8.009,-0.001852694438,0.004186718301,-0.016728278068,0,7,356.2472159,2,4,18,21.0,0.0,307.76167349433985,493.843,223.343915
A-1121,COc1cc(N[S](=O)(=O)c2ccc(C)cc2)c3C(=O)c4ccccc4C(=O)c3c1N,-5.1125700510000005,30,84.0,8.027999999999999,-0.006511033861,0.006937715758,-0.054004847067,0,12,404.3114082,2,5,16,18.0,0.0,331.5973573640916,503.72,251.025721
A-2463,Oc1cc(O)c2C[C@@H](OC(=O)c3cc(O)c(O)c(O)c3)[C@H](Oc2c1)c4cc(O)c(O)c(O)c4,-1.059160932,33,93.0,17.535,-0.011909666101,0.0434661433899999,-0.0978021496429999,0,17,440.2296438999999,0,11,30,27.0,-0.001,334.60208994330145,587.9580000000001,246.822764
G-560,CC1(C)C(C=C(Br)Br)C1C(=O)OC(C#N)c2cccc(Oc3ccccc3)c2,-8.402000000000001,28,78.0,6.232,-0.00133736591,-0.003551388096,-0.021161356631,0,13,486.04816330000006,1,3,14,17.0,0.0,341.41873461316897,602.44,259.838151
B-2963,CC1(C)[C@@H](C=C(Br)Br)[C@H]1C(=O)O[C@H](C#N)c2cccc(Oc3ccccc3)c2,-8.4024,28,78.0,6.611000000000001,-0.0002259798479999,-0.005594045044,-0.018620558988,0,13,486.04816330000006,1,3,11,15.0,0.0,341.83259838524333,597.63,259.583878
B-3114,CC1(C)[C@@H](C(Br)C(Br)(Br)Br)[C@H]1C(=O)O[C@H](C#N)c2cccc(Oc3ccccc3)c2,-6.9197,29,84.0,10.1,-0.0010332728,-0.00496863521,-0.021898425832,0,19,645.8552189,1,3,18,19.0,0.0,384.3689251379392,647.604,300.821435
B-3178,CC1(C)C(C=C(Cl)Cl)C1C(=O)OC(C#N)c2cccc(Oc3ccccc3)c2,-6.5587,28,78.0,3.805,-0.001392357717,-0.0001795272,-0.019415182365,0,13,397.1469829,1,3,15,16.0,0.0,336.11040772582174,586.067,246.620201
B-3122,CC1(C)[C@@H](C=C(Cl)Cl)[C@H]1C(=O)OC(C#N)c2cccc(Oc3ccccc3)c2,-7.6194,28,78.0,1.641,-0.000191920223,-0.002352659096,-0.015666946325,0,13,397.1469829,1,3,11,16.0,0.0,336.5196612000192,580.2869999999999,246.401501
G-402,OC4=C(C1CCC(CC1)c2ccc(Cl)cc2)C(=O)c3ccccc3C4=O,-5.931,25,72.0,2.979,-0.002941003094,0.006838460216,-0.015219244678,0,8,347.6873421,0,3,15,17.0,0.0,288.97827895469084,500.342,221.092586
B-3337,CCCCc1c2ccccc2cc3ccc4ccccc4c13,-7.5245,22,60.0,4.409,-1.225652e-06,-0.005960902419,-0.010567430549,0,1,264.2361898,0,0,6,15.0,0.0,250.0262030455653,415.662,196.038731
C-2400,CCCCC1=CC2=C(C=C1)C=C3C=CC4=C(C=CC=C4)C3=C2,-7.52,22,60.0,14.982,-2.730808e-06,-0.006533997527,-0.026583570798,0,1,264.2361898,0,0,8,14.0,0.0,254.2610482689143,455.625,197.175507
B-3276,Cn1nc(C)c(C(=O)c2ccc(Cl)c(C)c2Cl)c1OCC(=O)c3ccc(C)cc3,-6.5209,27,81.0,5.636,-0.002997575633,0.006513801049,-0.024190719829,0,13,411.1536861,2,3,14,17.0,0.0,352.704174870079,543.374,248.04396
A-5100,CCOC(=O)c1nn(c2ccc(OC)cc2)c3C(=O)N(CCc13)c4ccc(cc4)[N+]([O-])=O,-6.618719326,32,90.0,19.651,-0.0070852593169999,0.009338740094,-0.093011726945,0,11,416.2594322,4,6,25,24.0,0.0,339.16131428658133,587.24,255.149236
B-1651,Cc1c(C(O)=O)c(O)cc2C(=O)c3c(O)c(O)c(C4OC(CO)C(O)C(O)C4O)c(O)c3C(=O)c12,-2.5784,35,99.0,16.23,-0.009140642569,0.045056838353,-0.0420342794159999,0,21,472.2284538,0,13,32,28.0,0.0,352.1256479559165,590.615,254.599639
B-1646,Cc1c(C(O)=O)c(O)cc2C(=O)c3c(O)c(O)c([C@H]4O[C@H](CO)[C@@H](O)[C@H](O)[C@H]4O)c(O)c3C(=O)c12,-2.5784,35,99.0,12.5,-0.009111899387,0.04294393579,-0.035493603006,0,21,472.2284538,0,13,27,26.0,0.0,358.8753603343621,585.74,253.882852
B-3469,CC(Oc1ccc(Oc2cnc3cc(Cl)ccc3n2)cc1)C(=O)OCC4CCCO4,-5.0303,29,84.0,21.077,-0.001525244776,0.004396213623,-0.050798528277,0,13,407.6995584,2,5,14,18.0,0.0,336.5739310397405,516.129,245.422259
A-5817,COCCOCCCN1C(=O)c2c(N)c3C(=O)c4ccccc4C(=O)c3c(N)c2C1=O,-8.26504866,31,87.0,25.703000000000003,-0.004497624225,0.008254838858,-0.074724428125,0,11,402.2527289,3,6,22,18.0,0.0,325.4017737706565,566.948,246.093434
A-1113,Cc1cc(C)c(c(C)c1)C(=O)[P](=O)(c2ccccc2)c3ccccc3,-5.010576791,25,69.0,4.223,-0.002621690381,0.00231118704,-0.012355692253,0,5,327.20876160000006,0,2,14,18.0,0.0,306.48389883058286,468.234,219.326691
B-3428,CC(Oc1ccc(Oc2cnc3cc(Cl)ccc3n2)cc1)C(=O)OCCON=C(C)C,-5.8479,30,87.0,38.986,-0.003377017236,0.00558792753,-0.0869699929649999,0,13,421.70626160000006,3,5,18,18.0,0.0,372.7169102372988,617.823,256.968562
B-3196,Fc1ccc(cc1)C(=O)C2CCN(CC2)CCN3C(=O)Nc4ccccc4C3=O,-4.5971,29,81.0,6.683,-0.005398475767,0.010098780416,-0.037008641925,0,9,373.2529174,3,3,16,20.0,0.0,309.3129883407664,533.925,233.333364
B-1541,CN(C)[C@H]1[C@@H]2[C@@H](O)[C@@H]3C(=C)c4cccc(O)c4C(=C3C(=O)[C@]2(O)C(=O)\C(=C(N)/O)C1=O)O,-1.768,32,90.0,21.243,-0.00803528804,0.0222279710919999,-0.0859378736219999,0,14,420.2448356,2,8,24,21.0,0.0,333.9426395859188,515.505,244.96688
A-3941,CC1=NN(C(O)C1N=Nc2ccc3c(cccc3[S]([O-])(=O)=O)c2[S](O)(=O)=O)c4ccc(cc4)[S](=O)(=O)CCO[S]([O-])(=O)=O,-0.392839827,43,123.0,40.196,-0.0440836792129999,0.0465126950679999,-0.214543935296,0,37,656.5144162,4,13,13,16.0,0.0,474.6982149278228,739.154,374.094023
B-1064,COc1cc(cc(OC)c1OC)[C@H]2[C@@H]3[C@H](COC3=O)Cc4c(O)c5OCOc5cc24,-4.5035,30,84.0,21.264,-0.003826595406,0.007473781544,-0.068763599731,0,12,392.2314292,0,8,18,20.0,0.0,313.2924368829504,494.457,236.146103
B-973,COc1cc(cc(OC)c1OC)[C@H]2[C@H]3[C@H](COC3=O)[C@@H](O)c4cc5OCOc5cc24,-3.6174,30,84.0,31.105,-0.004839120715,0.009544805695,-0.1151006643249999,0,12,392.2314292,0,8,20,21.0,0.0,311.3441597089783,534.0319999999999,236.936979
E-1006,O=C(N)C(=C(O)C(N(C)C)C(C1(O)C(O)=C(C2C(O)(c(c3c(O)cc4)c4Cl)C)C3=O)C2)C1=O,-2.88,32,93.0,15.896,-0.007769694969,0.023867156161,-0.058243433946,0,18,455.6977732,2,8,24,25.0,0.0,362.76298537242894,539.771,259.040166
A-863,CCCCc1nc(Cl)c(CO)n1Cc2ccc(cc2)c3ccccc3c4n[nH]nn4,-4.945016986000001,30,84.0,20.031,-0.000127849378,-0.004125794359,-0.037787751019,0,9,399.7287516,6,1,24,22.0,0.0,338.42931006435106,598.284,256.146653
B-2863,CC1(C)C(C(=O)OC(C#N)c2cccc(Oc3ccccc3)c2)C1(C)C,-6.0248,26,72.0,9.181,-0.001298038702,-0.003172063075,-0.022075765241,0,9,326.2411078,1,3,15,19.0,0.0,304.8100494200175,522.523,213.818163
E-1007,COc2ccc1C(OC(=O)c1c2OC)C4N(C)CCc5cc3OCOc3c(OC)c45,-3.14,30,84.0,12.472,-0.0034309936849999,0.00403520526,-0.05161623796,0,12,390.2387274,1,7,18,17.0,0.0,317.1841788024168,510.851,239.495567
B-768,COc1ccc2[C@H](OC(=O)c2c1OC)[C@@H]3N(C)CCc4cc5OCOc5c(OC)c34,-3.1393,30,84.0,12.880999999999998,-0.003749551835,0.006578270432,-0.0566285449799999,0,11,390.2387274,1,7,24,19.0,0.0,318.93087879150863,507.251,236.12553
B-3016,CC(C)(C)c1ccc(O[P](=O)(Oc2ccccc2)Oc3ccccc3)cc1,-5.0774,27,75.0,6.93,-0.002298451529,-0.000783251306,-0.0176620822959999,0,7,359.2075715,0,4,18,24.0,0.0,321.27687913823075,533.5369999999999,235.543035
A-2681,CC(=O)Nc1cc(ccc1N=Nc2ccc(cc2Cl)[N+]([O-])=O)N(CCOC(C)=O)CCOC(C)=O,-6.963714867,34,99.0,27.597,-0.006168739266,0.016502229936,-0.067864328569,0,16,481.7184779,4,7,29,22.0,0.0,391.3435132584984,624.366,280.076203
A-1967,CC(=O)CC(=O)Nc1ccc(cc1C)c2ccc(NC(=O)CC(C)=O)c(C)c2,-5.325018234,28,78.0,3.06,-0.005196486677,0.013760047873,-0.047317919979,0,10,356.2472159,2,4,18,19.0,0.001,333.5954636739162,586.587,228.525264
G-284,O=C1N(COC(=O)CCCCC)C(=O)C(N1)(c2ccccc2)c3ccccc3,-5.886,28,78.0,4.638,-0.002932130419,0.009210130404,-0.007937262689,0,6,356.2472159,2,4,27,23.0,0.0,319.33342855475684,587.242,228.745918
B-1929,OC(=O)C(CSSCC(NC(=O)Cc1ccccc1)C(O)=O)NC(=O)Cc2ccccc2,-1.833,32,90.0,1.864,-0.0037298644919999,0.018639076668,-0.0214997428569999,0,10,452.3756006,2,6,34,27.0,0.0,383.42078308280577,673.852,279.409288
E-697,CN(C)C2C1CC4C(=C(O)C1(O)C(=O)C(=C2O)C(N)=O)C(=O)c3c(O)cccc3C4(C)O,-3.12,32,90.0,8.707,-0.006830842962,0.026036514056,-0.04867407698,0,16,420.2448356,2,8,25,20.0,0.0,343.6438226383384,542.822,244.602465
I-85,OC1=C(C(C2=C(O)[C@@](C(C(C(N)=O)=C(O)[C@H]3N(C)C)=O)(O)[C@@]3([H])C[C@]2([H])[C@@]4(O)C)=O)C4=CC=C1,-2.93,32,90.0,9.424,-0.006836120444,0.026193214227,-0.0484294697599999,0,16,420.2448356,2,8,24,18.0,-0.001,343.63117560418027,542.219,244.584275
B-98,CN(C)[C@H]1[C@@H]2C[C@H]3C(=C(O)c4c(O)cccc4[C@@]3(C)O)C(=O)[C@]2(O)C(=O)\C(=C(N)/O)C1=O,-3.284,32,90.0,8.448,-0.006827862239,0.026341671894,-0.048017970813,0,16,420.2448356,2,8,24,20.0,0.0,343.8354622792561,541.868,244.60334100000003
E-1008,CC3C2C(O)C1C(N(C)C)C(=C(C(N)=O)C(=O)C1(O)C(=C2C(=O)c4c(O)cccc34)O)O,-2.87,32,90.0,12.629,-0.006065696908,0.021754671888,-0.052922814259,0,15,420.2448356,2,8,25,19.0,0.0,342.1354485707492,523.554,246.183431
C-1052,CN(C)C1C2C(O)C3C(=C(O)C2(O)C(=O)C(=C1O)C(N)=O)C(=O)C4=C(C=CC=C4O)C3(C)O,-3.15,33,93.0,14.78,-0.006598601926,0.026513392195,-0.052513837411,0,16,436.2442405000001,2,9,28,23.0,0.0,345.657845164082,542.36,248.844566
I-62,OC1=C(C(O)=C(C([C@@](C(C(C(N)=O)=C(O)[C@H]2N(C)C)=O)(O)[C@@]2([H])[C@H]3O)=O)[C@@]3([H])[C@@]4(O)C)C4=CC=C1,-3.09,33,93.0,13.839,-0.006748711032,0.026416228633,-0.054587167045,0,16,436.2442405000001,2,9,26,28.0,0.0,350.28722351622525,543.7769999999999,248.810012
A-4374,CCN(CC)c1ccc2C=C(C(=O)Oc2c1)c3n(C)c4ccccc4[n+]3C,-1.450561375,27,75.0,10.706,-3.6441225e-05,-0.003354806676,-0.098118350667,0,6,338.2551093,3,2,18,20.0,0.0,308.95871558955673,497.878,224.10643
A-6033,COC(=O)CCN(CCC(=O)OC)c1ccc(N=Nc2ccc(cc2[N+]([O-])=O)[N+]([O-])=O)c(NC(C)=O)c1,-7.332831336,37,105.0,45.66,-0.008157231331,0.022485930135,-0.091199502945,0,17,492.2710533,6,9,36,27.0,0.0,410.4137676594026,688.927,282.00299
C-1063,CCOC(=O)NC1=CC2=C(SC3=C(C=CC=C3)N2C(=O)CCN4CCOCC4)C=C1,-3.9,29,84.0,12.317,-0.002204047618,0.007144095608,-0.027458483161,0,9,402.3187065,3,4,17,19.0,0.0,341.8568266283576,561.678,257.081538
C-1009,COC1=CC=C2C(=CC1=O)C(CCC3=C2C(=C(OC)C(=C3)OC)OC)NC(C)=O,-0.94,29,81.0,23.976,-0.001405599218,0.0037038055229999,-0.057095193447,0,11,374.2393225,1,6,22,19.0,0.0,324.3935348013618,517.925,233.661367
B-121,COC1=CC=C2C(=CC1=O)[C@H](CCc3cc(OC)c(OC)c(OC)c23)NC(C)=O,-0.9482,29,81.0,30.436,-0.00317922893,0.002167962434,-0.0928613957169999,0,10,374.2393225,1,6,18,19.0,-0.001,332.4713942739421,519.293,234.201562
B-4474,OCCN1CCN(CCCN2c3ccccc3Sc4ccc(cc24)C(F)(F)F)CC1,-4.1488,29,84.0,10.967,-0.001690447509,0.008095154342,-0.02512774278,0,13,411.3157012,3,1,16,19.0,0.0,333.6732942609787,567.366,250.672486
F-613,CC1=CC=C(C2(O)CCN(CCCC(=O)C3=CC=C(F)C=C3)CC2)C=C1,-4.35,26,72.0,16.284000000000002,-0.005856266885,0.007196931831,-0.048287194148,0,7,329.240106,1,2,21,21.0,0.0,304.93009935634893,523.198,213.37426
A-5699,CCCCNc1ccc(NCCCC)c2C(=O)c3ccccc3C(=O)c12,-7.931857077999999,26,72.0,3.762,-0.001914138042,-0.001189279286,-0.0270113779689999,0,6,324.2484061,2,2,8,17.0,0.0,290.5923692926045,531.37,221.598934
C-2521,COC1=CC=C(C=C1)C2SC3=CC=CC=C3N(CCN(C)C)C(=O)C2OC(C)=O,-2.95,28,81.0,13.275,-0.0019970489199999,0.001913271953,-0.032395085141,0,11,388.3120033,2,4,20,19.0,-0.001,336.7690286919644,557.431,250.65024900000003
I-33,O=C1[C@H](OC(C)=O)[C@H](c2ccc(OC)cc2)Sc2ccccc2N1CCN(C)C,-3.16,28,81.0,15.912,-0.004324430295,0.006678161082,-0.042723912187,0,9,388.3120033,2,4,20,18.0,0.0,342.29609412188745,572.265,250.109428
B-2705,CC(C)=CC1C(C(=O)OCc2coc(Cc3ccccc3)c2)C1(C)C,-6.0524,25,69.0,30.737,-0.001847503402,0.0036632805209999,-0.042025739631,0,6,312.2344046,0,3,17,17.0,0.001,317.3988414957502,589.594,214.271685
A-2043,CCOC(=O)C(=Cc1ccc(cc1)C=C(C(=O)OCC)C(=O)OCC)C(=O)OCC,-5.621635269,30,84.0,3.3360000000000003,-0.005677403436,0.011766172223,-0.040178533221,0,12,392.2314292,0,8,31,23.0,0.0,339.0013697961153,654.614,239.446638
A-679,CCC(C)N1N=CN(C1=O)c2ccc(cc2)N3CCN(CC3)c4ccc(O)cc4,-4.828521956,29,81.0,5.475,-0.002381423357,-0.001115161817,-0.0447190600289999,0,7,366.2685157,5,2,17,21.0,0.0,324.30463611756426,543.35,236.04496
F-733,CC1=CC=C(C2(O)CCN(CCCC(=O)C3=CC=CC=C3)CC2)C=C1,-1.62,25,69.0,8.229,-0.004167930045,0.004405223082,-0.0306299945979999,0,5,310.24170289999995,1,2,18,15.0,0.0,294.76045162527987,499.045,210.143571
C-612,CC12CC3=C(ON=C3)C=C1CCC4C2CCC5(C)C4CCC5(O)C#C,-5.51,25,69.0,8.676,-0.002240718437,0.001500761212,-0.025631841216,0,6,310.2417028,1,2,17,17.0,0.0,266.3177494242813,484.867,208.339767
G-690,CC1CC2C3CC(F)C4=CC(=O)C=CC4(C)C3(F)C(O)CC2(C)C1(O)C(=O)CO,-5.613,29,81.0,3.198,-0.004655501971,0.022664630672,-0.016525097739,0,18,382.2300207,0,5,18,17.0,0.0,313.9870355597047,498.321,218.897633
B-1803,C[C@@H]1C[C@H]2[C@@H]3C[C@H](F)C4=CC(=O)C=C[C@]4(C)[C@@]3(F)[C@@H](O)C[C@]2(C)[C@@]1(O)C(=O)CO,-5.6133,29,81.0,7.485,-0.00403146438,0.021260350831,-0.0163501804579999,0,16,382.2300207,0,5,14,15.0,0.0,319.1391519160202,509.358,220.885769
C-771,CCC(=O)N(C1CCN(CC1)CCC2=CC=CC=C2)C3=CC=CC=C3,-3.82,25,69.0,4.802,-0.0017656044839999,-0.00184209906,-0.0196121588929999,0,3,308.24900110000004,2,1,16,16.0,-0.001,289.3214859941763,492.48800000000006,213.297442
B-3433,CCc1ccc(cc1)C(=O)NN(C(=O)c2cc(C)cc(C)c2)C(C)(C)C,-5.6281,26,72.0,6.977,-0.001249055533,-0.004537657305,-0.0247633617309999,0,6,324.2484061,2,2,17,19.0,0.0,344.47995576948705,497.141,217.660407
B-3545,COc1cccc(C(=O)NN(C(=O)c2cc(C)cc(C)c2)C(C)(C)C)c1C,-5.5664,27,75.0,15.543,-0.004707741703,0.0026930999709999,-0.060094393163,0,8,340.247811,2,3,17,17.0,-0.001,331.39600461805577,482.121,218.117535
B-3171,OCCNCCNc1ccc(NCCNCCO)c2C(=O)c3c(O)ccc(O)c3C(=O)c12,-1.8388,32,90.0,29.29,-0.00761359942,0.01794183829,-0.124458101359,0,10,416.2594322,4,6,24,26.0,0.0,334.180342307184,611.381,252.325625
A-5005,CC12CCC(=O)C=C1C=CC3C2CCC4(C)C3CCC45CCC(=O)O5,-4.100706158,25,69.0,8.229,-0.0049134828639999,0.008028953264,-0.036943964718,0,8,312.2344046,0,3,16,18.0,0.0,266.414750084874,533.84,211.140839
E-689,CC(=O)OC3(CCC4C2CCC1=CC(=O)CCC1C2CCC34C)C#C,-4.79,25,69.0,9.331,-0.002519672518,0.005806923077,-0.031057951652,0,6,312.2344046,0,3,14,18.0,0.0,284.55602063894963,464.041,203.806905
B-29,CC(=O)O[C@]1(CC[C@H]2[C@@H]3CCC4=CC(=O)CC[C@@H]4[C@H]3CC[C@]12C)C#C,-4.8041,25,69.0,5.6370000000000005,-0.002464967232,0.004916509072,-0.018248751853,0,5,312.2344046,0,3,17,15.0,0.0,285.0051120166742,471.759,203.818397
B-710,COC(=O)C(/C)=C/[C@@H]1[C@@H](C(=O)O[C@H]2CC(=O)C(=C2C)C\C=C/C=C)C1(C)C,-4.6168,27,75.0,10.072,-0.002543121391,0.0074686604989999,-0.023649995013,0,12,344.2332144,0,5,16,20.0,0.0,320.97271215676136,622.883,223.01198
A-1290,C[C@@H]1C[C@H]2[C@@H]3C[C@H](F)C4=CC(=O)C=C[C@]4(C)[C@H]3[C@@H](O)C[C@]2(C)[C@H]1C(=O)CO,-3.203737155,27,75.0,7.553999999999999,-0.004624100299,0.017019062398,-0.020322310723,0,12,347.2322126,0,4,14,16.0,0.0,299.63351581875764,463.009,210.805844
C-530,CC1CC2C3CCC(O)(C(C)=O)C3(C)CC(O)C2(F)C4(C)C=CC(=O)C=C14,-4.1,27,75.0,6.405,-0.004275490004,0.017769697427,-0.013178788347,0,9,347.2322126,0,4,18,20.0,0.0,312.69960821268336,500.692,214.097902
B-4580,C[C@H]1C[C@H]2[C@@H]3CC[C@](O)(C(C)=O)[C@@]3(C)C[C@H](O)[C@]2(F)[C@@]4(C)C=CC(=O)C=C14,-4.0986,26,75.0,11.733,-0.005119608243,0.016807628065,-0.097556868487,0,10,347.2322126,0,4,16,19.0,0.0,327.2949224986688,462.38,214.992632
E-414,C1=CC(=O)C=C2CCC3C4CC(C)C(O)(C(=O)CO)C4(C)CC(O)C3(F)C12C,-3.77,28,78.0,7.441,-0.006789694,0.022745220166,-0.029223367937,0,14,363.2316176000001,0,5,21,17.0,0.0,324.8355205526629,499.585,220.673386
B-4563,C[C@@H]1C[C@H]2[C@@H]3CCC4=CC(=O)C=C[C@]4(C)[C@@]3(F)[C@@H](O)C[C@]2(C)[C@@]1(O)C(=O)CO,-3.6444,28,78.0,5.564,-0.00582457407,0.020702796198,-0.024717694674,0,12,363.2316176000001,0,5,21,22.0,0.0,319.0813025292299,482.914,218.234566
A-461,C[C@H]1C[C@H]2[C@@H]3CCC4=CC(=O)C=C[C@]4(C)[C@@]3(F)[C@@H](O)C[C@]2(C)[C@@]1(O)C(=O)CO,-3.7709815,28,78.0,9.84,-0.005694523672,0.019893025449,-0.026425575808,0,12,363.2316176000001,0,5,24,21.0,0.0,318.37136911844465,516.419,219.508628
A-6071,CCC(C)(C)c1cc(n2nc3ccccc3n2)c(O)c(c1)C(C)(C)CC,-8.545917916,26,72.0,2.742,-2.2757094000000003e-05,-0.007447995442,-0.025841990175,0,7,322.2557043,3,1,14,16.0,0.0,317.2564500223708,514.145,220.238742
C-846,CCC(=O)OC(CC1=CC=CC=C1)(C(C)CN(C)C)C2=CC=CC=C2,-2.61,25,69.0,12.691,-0.000136855127,-0.00539317991,-0.021715254043,0,5,310.24170289999995,1,2,17,17.0,0.0,306.33278158206133,495.101,209.687108
B-962,CCC(=O)O[C@@](Cc1ccccc1)([C@H](C)CN(C)C)c2ccccc2,-5.0097,25,69.0,8.683,-0.000213285368,-0.00510004995,-0.020459798145,0,5,310.24170289999995,1,2,16,19.0,0.0,307.3520188800514,518.423,211.157808