Name,SMILES,Solubility,AtomNum,DegFreedom,Dipole,Ghb,Gsasa,Gsolv,HNum,LP,MolWt,NNum,ONum,PiCenters,PiDeloc,Quadrupole,Volume,SASA,Polarizabilty
A-1488,CC[C@]12CC[C@H]3[C@@H](CCc4cc(OC)ccc34)[C@@H]1CC[C@@H]2O,-4.875700653,22,60.0,16.419,-0.001621566549,-0.0001227483,-0.031843897002,0,3,272.2135278,0,2,14,15.0,0.0,242.8014988854806,439.551,188.007878
C-1717,CC12CCC3C(CCC4=CC(=O)CCC34C)C1CCC2OC=O,-4.93,23,63.0,7.153,-0.003875905388,0.00984900333,-0.014050744438,0,5,288.21293280000003,0,3,15,16.0,0.0,274.1640900001854,466.657,193.262962
C-1691,CC12CCC3C(CC=C4CC(CCC34C)OC=O)C1CCC2=O,-4.41,23,63.0,8.427999999999999,-0.0038644217979999,0.011224147918,-0.009698305516,0,4,288.21293280000003,0,3,17,17.0,0.0,256.1333752186196,461.685,191.021448
F-339,CCC(=O)C(CCCCCCOC1=C(Cl)C=C(OC)C=C1)C(=O)CC,-5.27,24,69.0,33.693000000000005,-0.0029335614689999,0.004110695538,-0.064812760409,0,7,339.6652753,0,4,20,20.0,0.0,297.35122681398764,582.4730000000001,216.969845
E-680,CCCCOc2cc(C(=O)NCCN(CC)CC)c1ccccc1n2,-3.7,25,69.0,7.276,-0.001608176014,-0.002168511839,-0.026301876555,0,6,314.2336375,3,2,20,19.0,0.0,287.44675933491766,554.4069999999999,212.836279
C-1016,COC1=CC2=C(N)N=C(N=C2C(=C1OC)OC)N3CCN(CC3)C(=O)OCC(C)(C)O,-3.64,31,87.0,49.251000000000005,-0.004235287614,0.000532947386,-0.150793381933,0,12,406.2446636,5,6,30,22.0,0.0,345.21808665647364,595.106,242.605357
B-4349,CCOC(=O)CCN(SN(C)C(=O)Oc1cccc2CC(C)(C)Oc12)C(C)C,-4.7103,28,78.0,6.269,-0.004363001303,0.007759323932,-0.058363412523,0,11,380.2899364,2,5,23,21.0,0.0,322.7467044137604,629.248,238.645285
C-1094,CC(=C\CO)/C=C/C=C(C)/C=C/C1=C(C)CCCC1(C)C,-3.81,21,57.0,5.593,-0.000774933457,-0.0003172665829999,-0.0118680995179999,0,2,256.2141229,0,1,12,17.0,0.0,270.11403667895,492.168,181.130811
A-266,C[C@H]1CC(=O)C=C2CC[C@H]3[C@@H]4CC[C@H](O)[C@@]4(C)CC[C@@H]3[C@@]12C,-3.526422567,22,60.0,11.455,-0.0029121441029999,0.007077504629,-0.019243836142,0,4,272.2135278,0,2,16,16.0,0.0,266.06286663970485,415.621,182.388699
C-1671,CC(C)C1=CC2=CCC3C(C)(CCCC3(C)C(O)=O)C2CC1,-3.8,22,60.0,7.843999999999999,-0.000762582239,0.00082709937,-0.009134783229,0,4,272.2135278,0,2,15,17.0,0.0,261.39797943319047,433.16,187.70751
B-1055,CC(C)C1=CC2=CC[C@@H]3[C@](C)(CCC[C@@]3(C)C(O)=O)[C@H]2CC1,-3.7959,22,60.0,4.714,-0.00107123007,0.002958767291,-0.008228237997,0,5,272.2135278,0,2,13,17.0,0.0,249.9678169600537,486.249,188.470137
H-341,CC12CCC(=O)C=C1CCC1C2CCC2(C)C1CCC2(C)O,-3.97,22,60.0,3.005,-0.002356527953,0.004515862946,-0.01297942899,0,5,272.2135278,0,2,10,15.0,-0.001,256.9381338930569,420.846,184.527562
B-4572,C[C@]1(O)CC[C@H]2[C@@H]3CCC4=CC(=O)CC[C@]4(C)[C@H]3CC[C@]12C,-3.9505,22,60.0,4.675,-0.0024139949369999,0.004190135005,-0.013694950898,0,4,272.2135278,0,2,11,16.0,0.0,262.13993084173654,423.774,185.610713
A-556,CC[C@]12CC[C@H]3[C@@H](CCC4=C3CC=C(C4)OC)[C@@H]1CC[C@@H]2O,-4.702513826000001,22,60.0,16.418,-0.001622122917,-0.000124108821,-0.0318547807519999,0,3,272.2135278,0,2,14,15.0,-0.001,242.8048068439978,439.552,188.007863
C-1699,CC12CCC(=O)CC1CCC3C4CCC(OC=O)C4(C)CCC23,-5.32,23,63.0,7.188,-0.003861947577,0.009733666067,-0.0141438733499999,0,5,288.21293280000003,0,3,15,15.0,0.0,274.1079378631714,466.458,193.263207
G-595,CCCCCCOC(=O)c1ccccc1C(=O)OCCCCCC,-6.144,24,66.0,11.339,-0.002627315051,0.001917866704,-0.022930648482,0,6,304.2123377,0,4,23,21.0,0.0,278.47704617990667,557.217,200.82667
F-805,CCCCOC(=O)C1=C(C(=O)OCC(CC)CCCC)C=CC=C1,-7.22,24,66.0,10.488,-0.002004102641,0.000325519896,-0.028676267692,0,8,304.2123377,0,4,18,18.0,0.001,286.6824673803711,544.736,201.619239
C-463,OC(CCN1CCCCC1)(C2CCCCC2)C3=CC=CC=C3,-5.2,22,60.0,1.54,-0.000452747406,-0.003735084347,-0.00917499361,0,2,270.22082610000007,1,1,15,16.0,0.001,252.06992635948868,454.346,186.408019
A-6070,CCCCCC1CCC(CC1)c2ccc(CCC)cc2,-6.772570424,20,54.0,5.853,-2.42115e-06,-0.0067401050459999,-0.018406635511,0,1,240.214718,0,0,9,13.0,0.0,245.9064012199029,469.997,181.098835
B-4350,CCCCN(CCCC)SN(C)C(=O)Oc1cccc2CC(C)(C)Oc12,-6.1033,25,72.0,6.763,-0.001903400972,0.0018370048439999,-0.030998171847,0,8,348.29112660000004,1,3,13,21.0,0.0,389.0466774667584,601.596,229.220466
A-1133,C[C@H]1CC(=O)C[C@@H]2CC[C@H]3[C@@H]4CC[C@H](O)[C@@]4(C)CC[C@@H]3[C@@]12C,-5.006428958,22,60.0,5.309,-0.005309015312,0.006577998143,-0.03831558447,0,5,272.2135278,0,2,14,15.0,0.0,264.1156620459212,421.391,183.980332
E-1289,CCCCCC(O)C=CC1C(O)CC(=O)C1CC=CCCCC(=O)O,-2.47,25,69.0,33.674,-0.011150426412,0.023129303591,-0.1247600322089999,0,9,320.21174260000004,0,5,23,18.0,0.0,294.586097244586,602.948,202.926057
C-1375,CCN(CC)C(=O)NC1=CC(=C(OCC(O)CNC(C)(C)C)C=C1)C(C)=O,-1.9,27,75.0,8.596,-0.004187654457,0.006896407704,-0.0335371084469999,0,11,346.23244730000005,3,4,26,23.0,0.0,325.4591442180068,538.211,215.863136
B-3121,CC(CN1CC(C)OC(C)C1)Cc2ccc(cc2)C(C)(C)C,-2.4821,22,60.0,5.791,-0.000224561973,-0.003735465445,-0.014193191957,0,6,270.22082610000007,1,1,12,14.0,0.0,275.9187081663273,484.404,183.425943
B-3125,CC(CN1C[C@H](C)O[C@H](C)C1)Cc2ccc(cc2)C(C)(C)C,-4.8487,22,60.0,2.494,-0.000287131065,-0.003617723261,-0.011616666217,0,7,270.22082610000007,1,1,10,13.0,0.0,275.57555820394685,476.99,186.896309
C-334,CCCCCOC(=O)CCCNC(=O)N[C]12C[CH]3[CH2]C([CH2][CH](C3)C1)C2,-2.32,25,69.0,1.275,-0.0031154685729999,0.0016138610509999,-0.02388253761,0,7,316.2263392,2,3,18,16.0,0.0,282.4425758341702,522.7719999999999,201.756476
A-722,O=C1CCCCCN1C(=O)NCCCCCCNC(=O)N2CCCCCC2=O,-3.906400656,28,78.0,7.483,-0.007950364027,0.013733238265,-0.033969314363,0,8,360.2391505,4,4,23,24.0,-0.001,301.01135509953684,675.623,225.408341
A-5901,CC(=C)C(=O)OCCCCCCCCCCCCOC(=O)C(C)=C,-7.484220297999999,24,66.0,7.513,-0.004711673248,0.006073469973,-0.032735600656,0,8,304.2123377,0,4,14,23.0,0.001,289.58213453734834,601.555,198.422966
A-2598,CC(C)(C)OOC(C)(C)c1ccc(cc1)C(C)(C)OOC(C)(C)C,-5.7371515870000005,24,66.0,6.857,-0.002011857324,0.005058387258,-0.022837432232,0,8,304.2123377,0,4,24,19.0,0.0,353.1551996238836,526.055,198.346887
C-281,CCCCCC(O)/C=C/C1C(O)CC(=O)C1CCCCCCC(O)=O,-3.67,25,69.0,33.442,-0.011065346887,0.021238246047,-0.093314734668,0,9,320.21174260000004,0,5,20,20.0,0.0,287.3991447929003,572.505,202.387973
C-179,CCCCCC(O)/C=C/C1C(O)CC(O)C1C\C=C\CCCC(O)=O,-2.33,25,69.0,34.339,-0.011257206914,0.02270635353,-0.092448911829,0,9,320.21174260000004,0,5,20,22.0,0.001,287.51660485348947,599.96,202.623696
B-224,CCCCOC(=O)CC(CC(=O)OCCCC)(OC(C)=O)C(=O)OCCCC,-4.9058,28,78.0,3.793,-0.004354904879,0.013790391734,-0.023010325648,0,13,368.2099574,0,8,21,23.0,0.0,345.0315444820403,602.259,221.367465
B-2822,OC[C@H]1C[C@H](N[C@H]2C=C(CO)[C@@H](O)[C@H](O)[C@H]2O)[C@H](O)[C@@H](O)[C@@H]1O[C@@H]3O[C@H](CO)[C@@H](O)[C@H](O)[C@H]3O,0.3032,34,96.0,16.338,-0.01044504352,0.0482836179409999,-0.055076273261,0,22,462.2136852,1,13,31,24.0,0.0,343.12470459899737,611.881,246.625865
A-2077,CC(C)CCC(C)Nc1ccc(NC(C)CCC(C)C)cc1,-5.575133655,22,60.0,0.599,-4.046636e-06,-0.008960685891,-0.026100372158,0,2,268.2281244,2,0,9,16.0,0.0,301.59207720280546,560.034,192.041412
A-2626,CCCCCCCCOC(=O)\C=C\C(=O)OCCCCCCCC,-6.356030959,24,66.0,0.482,-0.0037124944329999,0.005953912706,-0.019372241206,0,6,304.2123377,0,4,28,19.0,0.0,284.72411150588755,615.235,201.598556
A-2025,CCCCC(CC)COC(=O)\C=C\C(=O)OCC(CC)CCCC,-5.456575257000001,24,66.0,5.5,-0.0027845971269999,0.0031324157189999,-0.029256602047,0,8,304.2123377,0,4,15,14.0,0.0,301.1727337221153,595.8530000000001,203.252712
A-6020,CCCCC(CC)COC(=O)\C=C/C(=O)OCC(CC)CCCC,-6.975819717,24,66.0,1.937,-0.002638030979,0.004180583957,-0.029475606787,0,10,304.2123377,0,4,14,16.0,0.0,292.06340674024966,587.73,202.243834
A-6042,CCCCCCCCCCCCCCCCCc1[nH]ccn1,-7.214642713,22,60.0,11.720999999999998,-7.066661e-06,-0.009957726413,-0.039983664106,0,4,268.2281244,2,0,3,14.0,0.0,265.1117410838877,569.498,192.589227
B-696,CCCCN(CCN(CCCC)C(=O)N1CCOCC1)C(=O)N2CCOCC2,0.0985,28,78.0,9.8,-0.0040693532399999,0.007290602512,-0.031560028215,0,7,360.2391505,4,4,17,18.0,0.0,321.0568774170448,548.59,227.689323
C-1619,CCCCCCCCCCCCCCCCCC(=O)OC=C,-6.15,22,60.0,31.815,-0.0031542688419999,-0.000895956451,-0.066066602017,0,4,272.2135278,0,2,7,14.0,0.0,268.05870265624173,585.568,191.917494
A-5529,CCCCC(CC)COC(=O)CCC(=O)OCC(CC)CCCC,-7.835715931,24,66.0,2.81,-0.002644469452,0.003509354714,-0.029280787319,0,9,304.2123377,0,4,14,15.0,0.0,296.55901500437767,590.4730000000001,202.764165
A-2438,CCCCC(CC)COC(=O)CSCC(=O)OCC(CC)CCCC,-6.654998171,24,69.0,5.803999999999999,-0.003076994796,0.004484060283,-0.0303756062759999,0,11,336.27712510000003,0,4,13,19.0,-0.001,315.5369122326409,586.122,221.499017
A-3204,CCCCC(CC)COC(=O)CC(C(=O)OCC(CC)CCCC)[S]([O-])(=O)=O,-1.735714189,28,78.0,2.837,-0.0123925683089999,0.010723152581,-0.0910420346499999,0,18,384.2753399,0,7,13,18.0,0.0,342.77411319867093,628.42,242.954481
A-5700,CC(C)CCC[C@@H](C)CCC[C@@H](C)CCC/C(C)=C/CO,-4.861741107,21,57.0,9.883,-0.000590567296,-0.0011027068919999,-0.015947363321,0,4,256.2141229,0,1,8,20.0,0.0,276.14043940424096,546.0830000000001,185.457182
A-2645,CCCCCCCCCCCCCCCCCCOC=C,-6.472081819,21,57.0,3.157,-1.9789507e-05,-0.005916163088,-0.025189082412,0,3,256.2141229,0,1,4,21.0,0.0,260.4085634255697,573.774,187.740611
A-2464,CCOCCCCCCCCCCCCCC\C=C\CC,-4.799983961000001,21,57.0,3.621,-2.0724761e-05,-0.00589775515,-0.025157444636,0,3,256.2141229,0,1,5,20.0,0.0,260.41605174371745,573.745,187.736848
A-5057,CC(C)CCCC(C)CCCC(C)CCCC(C)(O)C=C,-4.708653825,21,57.0,4.892,-0.000154010304,-0.003824476825,-0.01793531996,0,5,256.2141229,0,1,9,19.0,-0.001,278.1596175173523,547.901,183.989319
A-5450,CCCCCCCC\C=C/CCCCCCCCOCCO,-2.494902829,22,60.0,9.466,-0.002100984628,0.000730562166,-0.025646195578,0,3,272.2135278,0,2,10,21.0,0.001,266.17325468276704,586.631,191.262649
A-2250,CCCCCCCCCCCC(=O)N(CCCC)CCCC,-7.016412077000001,22,60.0,13.591,-0.002092818697,-0.003004297693,-0.039796589357,0,5,270.22082610000007,1,1,12,21.0,0.0,271.7775648845033,572.137,195.191624
A-2046,CCCCCCCCCCCCCCCCCC(=O)NCCO,-5.515281581,23,63.0,10.261,-0.004563724833,0.004089619324,-0.034683430781,0,4,286.220231,1,2,11,24.0,0.0,274.7810335042573,602.075,197.515133
A-2659,CCCCCCCCCCCCCCCCCCOCC[O],-6.496301265,22,60.0,10.497,-0.002097036383,0.000744778668,-0.025565674728,0,3,272.2135278,0,2,10,22.0,0.0,266.1801087967476,586.553,191.26096
B-655,CCCCCCCCCCCCCCCCCCCC,-8.1724,20,54.0,0.726,-3.218484e-06,-0.007957214242,-0.024650791501,0,2,240.214718,0,0,0,20.0,0.0,251.4678571739641,554.868,182.563666
A-1002,CCCCCCCCCCC(C)CCCCCCCC,-6.451104534,20,54.0,10.957,-3.456697e-06,-0.007849694583,-0.023688729271,0,3,240.214718,0,0,1,17.0,0.0,254.68147334139988,547.37,181.981689
A-2582,CCCCCCCCCCCCCCCCCCCCO,-5.475024349,21,57.0,10.583,-0.001279704664,-0.001386641338,-0.018351803861,0,2,256.2141229,0,1,3,20.0,0.0,256.7400535391467,568.193,186.214977
A-2649,CCCCCCCCCCC(CO)CCCCCCCC,-6.475024349,21,57.0,9.776,-0.000204754732,-0.001639928836,-0.0283079397679999,0,3,256.2141229,0,1,10,21.0,0.0,259.0291071550212,565.494,187.324891
A-436,CCCCCCCCCCCCCCCCCC[NH+](C)C,-4.678690034,21,57.0,0.917,-3.27102e-06,-0.00858854103,-0.083103117452,0,2,254.2214212,1,0,0,14.0,-0.001,270.30218632126235,574.276,185.847318
A-5496,CCCCCCCCCCCCCCCCCC[P](=O)(OC)OC,-5.529966162999999,23,66.0,15.215,-0.0089879643539999,-0.000555150717,-0.02867118516,0,8,319.18669480000005,0,2,10,14.0,0.0,307.717958916758,661.26,223.583582
F-724,CC(CCNCCNCCC(C)CC(C)(C)C)CC(C)(C)C,-2.24,22,60.0,1.218,-2.675249e-06,-0.008521648125,-0.035243808034,0,0,268.2281244,2,0,16,21.0,-0.001,293.3352786628048,541.979,186.172207
A-2351,[O-]C(=O)c1ccccc1C2=C3C=C(Br)C(=O)C(=C3Oc4c(Br)c([O-])c(Br)cc24)Br,-0.840017595,26,81.0,16.583,-0.009997123371,0.010041982115,-0.268834534732,0,22,639.8258537,0,5,11,16.0,0.0,342.78920127641067,541.181,292.55124900000004
A-407,[O-]C(=O)c1ccccc1C2=C3C=C(I)C(=O)C(=C3Oc4c(I)c([O-])c(I)cc24)I,-1.099315041,26,81.0,15.696,-0.009302713613,0.002320195082,-0.276149171887,0,23,827.8296302,0,5,11,15.0,0.001,376.3704313360255,575.739,338.67442400000004
C-2571,FC1=CC=CC(=C1C(=O)NC(=O)NC2=CC(=C(OC3=C(Cl)C=C(C=N3)C(F)(F)F)C(=C2)Cl)Cl)F,-8.65,32,96.0,7.832000000000001,-0.003598495401,0.016985658948,-0.03056289105,0,29,531.5838709,3,3,18,18.0,-0.001,371.9879242193475,637.77,271.241265
C-1065,FC1=C(NC(=O)NC(=O)C2=C(F)C=CC=C2F)C=CC(=C1)OC3=CC=C(C=C3Cl)C(F)(F)F,-8.09,32,93.0,10.218,-0.003667641708,0.017362804933,-0.033906008422,0,25,477.6804316000001,2,3,15,19.0,0.0,347.06179875220914,583.908,246.101836
A-2627,O=C=Nc1ccc(O[P](=S)(Oc2ccc(cc2)N=C=O)Oc3ccc(cc3)N=C=O)cc1,-6.4917192560000005,31,90.0,3.3360000000000003,-0.003767052011,0.016838343033,0.001661947563,0,11,453.2805425,3,5,24,22.0,0.001,364.41900964719366,623.8530000000001,274.525574
B-874,c1ccc2c(c1)ccc3nc4c(ccc5ccccc45)cc23,-6.2447,22,60.0,0.54,-7.91386e-07,-0.006278702927,-0.006984268643,0,1,266.2321571,1,0,9,15.0,-0.001,238.10534615726613,410.043,193.301512
B-2748,Cc1cc2cccc3ccc4c5ccccc5cc1c4c23,-8.5224,21,57.0,2.442,-4.6718200000000003e-07,-0.0054075288619999,-0.006239093343,0,1,252.2254539,0,0,11,15.0,0.0,230.5864567013965,377.074,183.208438
B-1861,Cc1c2ccccc2c3ccc4cccc5ccc1c3c45,-8.5234,21,57.0,1.6569999999999998,-4.6993700000000006e-07,-0.005417224744,-0.006417817849,0,0,252.2254539,0,0,9,15.0,0.001,230.216714887868,377.751,183.081085
A-2145,O=C1C=CC(=O)N1c2ccc(Cc3ccc(cc3)N4C(=O)C=CC4=O)cc2,-5.998008544,27,75.0,1.158,-0.003544293098,0.011903633705,-0.007276953979,0,8,344.23648,2,4,18,18.0,0.0,293.3232118338035,507.126,219.827461
A-2294,Cc1ccc(Nc2ccc(O)c3C(=O)c4ccccc4C(=O)c23)cc1,-7.549181312000001,25,69.0,16.609,-0.003850981726,0.004833340502,-0.042448075756,0,6,314.2303719,1,3,19,18.0,0.0,273.4132828756528,459.315,207.442486
A-2614,C[S](=O)(=O)Oc1ccc(Nc2ccc(O)c3C(=O)c4ccccc4C(=O)c23)cc1,-6.214227985,29,81.0,25.744,-0.011096456752,0.017408811395,-0.08929725443,0,11,394.293374,1,6,25,20.0,0.001,323.48010209375616,521.507,240.650087
G-296,c1cc(C)cc2c1c3cc4cccc5CCc(c45)c3cc2,-7.92,21,57.0,3.659,-8.00481e-07,-0.005652953137,-0.007411007196,0,1,252.2254539,0,0,11,16.0,0.001,230.54128395995377,394.1880000000001,185.320115
B-3565,Cc1ccc2cc3c(ccc4ccccc34)c5CCc1c25,-7.9663,21,57.0,3.22,-7.58746e-07,-0.005643845053,-0.0069987685179999,0,1,252.2254539,0,0,9,15.0,0.0,230.5646567940583,393.55300000000005,185.328748
A-1347,CNC(=O)c1cc(Oc2ccc(NC(=O)Nc3ccc(Cl)c(c3)C(F)(F)F)cc2)ccn1,-6.667295084,31,90.0,9.459,-0.002046160873,0.0083916893909999,-0.016708368561,0,18,448.6986286,4,3,16,16.0,0.0,350.8144591357181,563.789,251.605574
A-4589,COc1cc(N[S](=O)(=O)c2ccccc2)c3C(=O)c4ccccc4C(=O)c3c1N,-2.355850446,29,81.0,11.937,-0.00713655031,0.005037646223,-0.070009366822,0,13,392.3006723,2,5,19,20.0,0.0,320.6009561949678,535.381,246.157936
A-2796,CCN(CC)c1ccc2c(OC(=O)C(=C2C#N)c3sc4ccccc4n3)c1,-8.097434324,26,75.0,6.299,-0.001847890721,-0.001037010236,-0.024825820826,0,8,358.3091608,3,2,20,23.0,0.001,304.6026262257395,526.0880000000001,238.676317
A-5695,CC1=NN(c2ccccc2)C(=O)C1/C=C/3C(=NN(c4ccccc4)C3=O)C,-7.882271355,27,75.0,12.332,-0.001398954852,-0.002408984515,-0.023903935116,0,7,340.25107660000003,4,2,15,16.0,0.0,296.45610257033366,518.0459999999999,224.888647
C-1041,CC(OC1=CC=C(OC2=NC3=C(C=C(Cl)C=C3)N=C2)C=C1)C(=O)OC4CCCO4,-5.02,28,81.0,36.262,-0.002872032718,0.007645738734,-0.054755169077,0,12,395.6888225,2,5,19,19.0,0.0,333.15696758795053,574.8380000000001,239.61339500000005
B-1643,CC[n+]1c2cc(N)ccc2c3ccc(N)cc3c1c4ccccc4,-1.2948,24,66.0,2.576,-1.696387e-06,-0.00848117463,-0.08562923555,0,2,294.2455635,3,0,6,14.0,0.001,275.13180266405533,415.676,201.865505
A-2176,COC(=O)c1ccc(C(=O)OC)c(c1)N=NC(C(C)=O)C(=O)Nc2ccc3NC(=O)Nc3c2,-6.314069371,33,93.0,15.239,-0.004939473608,0.012532502824,-0.039707837549,0,14,434.2548044,5,7,32,28.0,0.0,376.6268403171728,630.999,256.970324
A-2183,COC(=O)c1cc(cc(c1)C(=O)OC)N=NC(C(C)=O)C(=O)Nc2ccc3NC(=O)Nc3c2,-6.377738451,33,93.0,29.999,-0.004425405804,0.017885365899,-0.047985456584,0,16,434.2548044,5,7,34,23.0,0.0,373.4442610716011,632.923,257.132421
E-998,c1c(OC)cc2c(CC(=O)O)c(C)n(C(=O)C=Cc3ccccc3)c2c1,-5.54,26,72.0,10.678,-0.004142173201,0.008337914493,-0.030928375932,0,7,330.2297768,1,4,22,18.0,-0.001,288.04095290712667,516.952,213.022062
B-2576,COc1ccc2n(c(C)c(CC(O)=O)c2c1)C(=O)\C=C\c3ccccc3,-5.5433,26,72.0,9.145,-0.0052884583999999,0.008965195591,-0.037862219013,0,6,330.2297768,1,4,20,19.0,-0.001,287.79518085989065,506.541,212.255448
A-5836,Cc1cccc(Cc2ccccc2)c1Cc3ccccc3,-7.179920248999999,21,57.0,1.666,-1.544118e-06,-0.005886737103,-0.008398798752,0,1,252.2254539,0,0,8,14.0,0.0,248.8581196667631,410.49,184.865869
A-5778,CC(C)(c1cc(Br)c(OCC2CO2)c(Br)c1)c3cc(Br)c(OCC4CO4)c(Br)c3,-7.395301899,26,81.0,14.305,-0.000957066522,0.006951140612,-0.038658603448,0,17,635.8371847,0,4,16,18.0,0.0,370.33210420643417,661.507,293.171542
A-5965,CC(C)(c1cc(Br)c(OCC(Br)CBr)c(Br)c1)c2cc(Br)c(OCC(Br)CBr)c(Br)c2,-9.816435105,24,87.0,12.977,-0.000409649702,-0.007273582053,-0.027904880663,0,27,923.452486,0,2,14,16.0,0.0,452.5226501464673,771.7769999999999,369.586745
C-1070,COC1=C(C=C(NC(C)=O)C(=C1)N=NC2=C(Br)C=C(C=C2[N+]([O-])=O)[N+]([O-])=O)N(CCC#N)CC=C,-8.9,34,99.0,25.375,-0.010736163274,0.0138544322479999,-0.104120980053,0,17,526.1723337000001,7,6,39,30.0,-0.001,398.68855616845366,757.7760000000001,286.467486
E-999,CC1(C)C(C=C(Cl)Cl)C1C(=O)OCc3cccc(Oc2ccccc2)c3,-6.29,26,72.0,12.297,-0.000125594448,-0.001435249161,-0.0139933880279999,0,11,371.1295438,0,3,12,16.0,0.0,315.1457774258234,526.79,231.089642
D-306,CC1(C)[C@@H](C=C(Cl)Cl)[C@H]1C(=O)OCc2cccc(Oc3ccccc3)c2,-6.99,26,72.0,7.763,-0.000428321857,0.002561011411,-0.013283267156,0,11,371.1295438,0,3,19,18.0,0.001,321.59949792134137,559.469,231.801981
C-2525,CN1CCC(C(O)C1)C2=C(O)C=C(O)C3=C2OC(=CC3=O)C4=C(Cl)C=CC=C4,-4.26,27,78.0,8.542,-0.004877825435,0.010052848822,-0.047357112186,0,12,381.6821193,1,5,13,18.0,0.0,306.907382527401,481.95,227.351629
F-951,CNC1=C(NC2=C3C=CC=CC3=NC3=C2C=CC=C3)C=CC(NS(C)(=O)=O)=C1,-2.94,28,78.0,6.924,-0.004051080348,-0.001207515071,-0.023361027562,0,8,372.315864,4,2,16,20.0,0.0,322.63954993261376,490.36300000000006,244.501125
A-2476,COC(=O)CN(CC(=O)OC)c1ccc(N=Nc2ccc(cc2C#N)[N+]([O-])=O)c(NC(C)=O)c1,-5.193519738,34,96.0,6.358,-0.007719485955,0.013928829428,-0.047540101759,0,14,448.2615076,6,7,37,29.0,0.0,392.1469215186885,662.735,265.025752
B-1215,COc1cc(cc(OC)c1O)[C@H]2[C@@H]3[C@H](COC3=O)Cc4c(O)c5OCOc5cc24,-4.1254,29,81.0,22.6,-0.006718703587,0.01517685596,-0.088095408822,0,13,380.2206933,0,8,20,18.0,0.0,296.2330949291188,512.898,226.495209
A-6004,COc1cc(N=Nc2c(Br)cc(cc2[N+]([O-])=O)[N+]([O-])=O)c(NC(C)=O)cc1N(CC=C)CC=C,-7.009332839,33,96.0,18.097,-0.009362025629,0.01481630523,-0.057558451582,0,17,512.1656305,6,6,32,29.0,0.0,394.1624283675537,639.461,279.754449
E-1000,c1cc(O)c2C(=O)C3=C(O)C4(O)C(=O)C(C(=O)N)=C(O)C(N(C)C)C4CC3C(O)c2c1Cl,-2.52,32,90.0,13.595,-0.006647741975,0.025188214828,-0.041681626833,0,21,443.6870373,2,8,20,20.0,0.0,347.65507332521975,544.601,252.855075
A-2489,COc1cc(N=Nc2c(Cl)cc(cc2[N+]([O-])=O)[N+]([O-])=O)c(NC(C)=O)cc1N(CC=C)CC=C,-4.388179382,33,96.0,20.338,-0.0095881005779999,0.0158724496769999,-0.06335299441,0,19,467.7150403,6,6,27,27.0,0.0,384.1586229956072,640.984,274.113921
A-2754,CC(=O)OCCN(CCOC(C)=O)c1ccc(cc1)N=Nc2ccc(cc2C#N)[N+]([O-])=O,-7.300465045,32,90.0,14.966,-0.006750370797,0.0116526066439999,-0.070268777975,0,11,418.2553995,5,6,27,24.0,0.0,351.8368310355925,639.429,251.207698
F-1005,CC1=C(OCC2=CC=CC=C2)C=CC2=C1OC(N1CCOCC1)=CC2=O,-5.16,26,72.0,5.865,-0.0024388535999999,0.00193550421,-0.030415866688,0,6,330.2297768,1,4,19,18.0,0.0,283.76509231532395,512.774,214.700182
B-684,COc1ccc2C(OC(=O)c2c1OC)C3N(C)CCc4cc5OCOc5cc34,-4.1065,28,78.0,8.988,-0.003908045763,0.005039749429,-0.048041764686,0,10,362.2285866,1,6,24,19.0,0.0,300.5653476120764,522.128,223.239434
A-5666,Cc1ccccc1OP(Oc2ccccc2C)Oc3ccccc3C,-7.77984306,25,69.0,2.0380000000000003,-0.004024657877,-0.001103098999,-0.0091214427469999,0,7,331.1974307,0,3,14,16.0,0.0,298.2180918772383,445.371,223.663719
G-1127,Cc1ccc(OP(=O)(Oc2cccc(C)c2)Oc3ccccc3C)cc1,-6.01,26,72.0,8.419,-0.004386141524,0.002878711895,-0.021876361976,0,10,347.19683560000004,0,4,13,15.0,0.001,310.9897821030804,481.603,227.718735