Name,SMILES,Solubility,AtomNum,DegFreedom,Dipole,Ghb,Gsasa,Gsolv,HNum,LP,MolWt,NNum,ONum,PiCenters,PiDeloc,Quadrupole,Volume,SASA,Polarizabilty
A-693,CC1CC(CC(C)(C)C1)OC(=O)C(C)=C,-4.598598509,15,39.0,3.382,-0.001604297333,0.000626155985,-0.013728560136,0,5,188.1383765,0,2,10,13.0,0.0,192.36716684039325,370.552,124.2775
B-2649,CCCCCC1C(CCC1=O)CC(=O)OC,-2.9076,16,42.0,2.318,-0.002355064188,0.007148086069,-0.008935808255,0,6,204.1377815,0,3,12,13.0,0.0,190.7027676047788,421.369,132.925468
A-208,CCC(CC)CC1(CCCCC1)C#N,-6.5873382320000005,14,36.0,6.077000000000001,-4.19066e-06,-0.0069321369649999,-0.015676352931,0,3,170.1462699,1,0,11,11.0,0.0,175.98894363763694,351.829,122.541976
B-3346,CCO[P](=S)(OC(C)C)Oc1cnc(nc1)C(C)(C)C,-4.7626,20,54.0,4.632,-0.0008369382889999,-0.001365382857,-0.008867359732,0,10,295.1897373,2,3,13,14.0,0.0,260.7334368925616,461.874,185.470109
B-2631,CCO[P](=S)(OCC)Oc1cc(C)nc(n1)N(CC)CC,-4.9242,21,57.0,2.436,-0.001458217816,-0.001140631816,-0.01330916133,0,11,309.1964405,3,3,15,14.0,0.0,264.69862006072526,492.469,199.031112
B-2887,CCCCc1c(C)nc(NCC)nc1O[S](=O)(=O)N(C)C,-4.1579,21,57.0,2.58,-0.009121719162,0.004236333679,-0.036991965762,0,14,292.2293817,4,3,10,12.0,0.0,250.27181503155728,464.117,179.164888
A-1193,CC(CO)CCC1CC=C(C)C1(C)C,-3.842746406,14,36.0,5.875,-0.000256923727,0.00172382168,-0.009281759351,0,3,172.1389716,0,1,10,12.0,0.0,186.0351548411909,347.057,122.192181
A-1541,CCCCCC1(C)CCC(C)(C)C1=O,-4.016533711,14,36.0,4.062,-0.000751005595,-0.000208530928,-0.012724475839,0,4,172.1389716,0,1,9,11.0,0.0,187.4047275778767,375.55,123.405244
A-2299,CC(C)C1OC2(CCCC2)OCC1(C)C,-3.524243771,15,39.0,4.988,-0.000320857122,-0.001386535634,-0.010398262789,0,8,188.1383765,0,2,7,9.0,0.0,187.8338985215904,339.57,120.566386
A-1843,CCC(CC)CC1(CCCCC1)C(O)=O,-4.281694517,15,39.0,5.242000000000001,-0.00074574225,0.001752744025,-0.006106171961,0,2,188.1383765,0,2,16,14.0,0.0,183.3484874533584,369.043,127.967958
A-2009,CC(C)CCCCCCCOC(=O)C=C,-5.199912698,15,39.0,6.483,-0.002659319673,0.007551259572,-0.012570536113,0,3,188.1383765,0,2,6,11.0,0.001,178.62329412962558,411.206,127.187118
A-427,CCC(C)(C)C1CCCCC1OC(C)=O,-4.446203904,15,39.0,4.942,-0.000527708771,-0.000740524358,-0.009711632078,0,5,188.1383765,0,2,11,11.0,0.001,185.40963887940964,340.35900000000004,123.858847
A-27,CCC(C)(CCC(C)C)C(=O)OCC1CO1,-3.513468741,16,42.0,8.113,-0.001820977275,0.00425945797,-0.014164725121,0,7,204.1377815,0,3,12,13.0,0.0,198.488770519678,416.357,131.990148
A-1925,CCOC(=O)OC1CCCCC1C(C)(C)C,-4.321140283,16,42.0,11.817,-0.001689213292,0.0009601501829999,-0.0241540024569999,0,5,204.1377815,0,3,15,14.0,-0.001,197.240717492142,366.427,131.172084
A-113,CC(C)[C@@H]1CC[C@@H](C)C[C@H]1OC(=O)[C@H](C)O,-2.979987205,16,42.0,8.286,-0.00303235316,0.006549405241,-0.020322305623,0,6,204.1377815,0,3,11,11.0,0.0,203.8039219095732,379.959,131.329882
A-4665,CC(C)C1CCC(C)CC12OCC(CO)O2,-2.279385535,16,42.0,1.605,-0.000720944702,0.0061633858369999,-0.000636861556,0,4,204.1377815,0,3,14,11.0,0.0,198.6968555412656,337.089,131.014164
B-2071,CCCCCCCCCCC(C(O)=O)C(O)=O,-3.99,17,45.0,24.973000000000003,-0.006264819424,0.012602743136,-0.074266832925,0,6,220.1371864,0,4,11,15.0,0.001,201.6354781225317,463.4330000000001,137.418389
B-1377,CCOC(=O)CCCCCCCC(=O)OCC,-2.99,17,45.0,1.5219999999999998,-0.004719198072,0.008422863899,-0.037621646256,0,6,220.1371864,0,4,12,14.0,0.0,200.3151596599574,451.543,138.420631
F-221,CCCCCCCCOC(=O)C(C)OC(C)=O,-3.39,17,45.0,2.985,-0.0028773588559999,0.007899568993,-0.013815782977,0,7,220.1371864,0,4,15,15.0,-0.001,208.4585510588739,447.947,137.503822
F-42,CC(C)C1OCC2(CO1)COC(C(C)C)OC2,-3.11,17,45.0,2.809,-0.000362225757,0.0031127091859999,-0.005108596248,0,8,220.1371864,0,4,17,12.0,0.0,222.94401450829056,395.247,138.7416
C-1605,OC(=O)CCCCCCCCCCCC(O)=O,-3.79,17,45.0,31.077,-0.009223705476,0.017464559235,-0.079328247456,0,6,220.1371864,0,4,12,15.0,0.0,193.90859623981552,443.407,135.431125
A-1713,CCCCOC(=O)CSCSCC(=O)OCCCC,-4.343077858,18,51.0,3.354,-0.004748921872,0.012033729382,-0.025157430956,0,8,284.2667612,0,4,21,16.0,0.0,245.4552260745552,509.009,178.216063
B-2313,O=C1CCCCCCCCCCCCN1,-2.6260000000000003,15,39.0,10.948,-0.003380372162,0.000935780657,-0.023566995266,0,2,186.1456748,1,1,12,10.0,0.0,174.24458694548613,336.242,128.333825
A-3548,NC1CCC(CC1)CC2CCC(N)CC2,-1.62400348,15,39.0,0.124,-1.102634e-05,-0.008786955264,-0.02021599192,0,2,184.1529731,2,0,12,11.0,-0.001,175.34256189286495,356.88699999999994,128.707615
C-1642,CCCCNC(=O)OCC(C)(CCC)COC(N)=O,-2.74,19,51.0,5.711,-0.001766285637,0.001677684815,-0.021146866689,0,7,248.15059280000003,2,4,24,16.0,0.0,241.71496944776456,488.86800000000005,152.25873
A-5016,CC(C)CCCC(C)CCCC(C)=O,-4.005176134,14,36.0,6.145,-0.000742906284,0.001133652533,-0.008495327099,0,3,172.1389716,0,1,6,12.0,0.0,187.499901256205,390.511,121.220498
A-883,COC1CCCCCCCCCCC1,-4.683590383,14,36.0,3.077,-3.551851e-05,-0.004347024764,-0.01009070012,0,1,172.1389716,0,1,11,11.0,0.0,167.54508175729188,330.436,123.136633
B-1447,CCCCCCCCCCCCC(O)=O,-3.8126,15,39.0,1.019,-0.00276946363,0.005696461544,-0.016034752832,0,4,188.1383765,0,2,6,13.0,0.0,180.5569962531449,415.184,127.330777
E-923,O=C(OC)CCCCCCCCCCC,-4.69,15,39.0,5.852,-0.000826516078,0.001361546061,-0.010307119644,0,4,188.1383765,0,2,6,14.0,0.0,188.839927065496,445.391,129.201099
A-1710,CC(CC(=O)OOC(C)(C)C)CC(C)(C)C,-4.210096102,16,42.0,13.011,-0.003612954098,0.005170762658,-0.052574036064,0,7,204.1377815,0,3,17,14.0,0.0,222.2404547559493,401.533,128.824589
A-1588,CCCCC(CC)C(=O)OOC(C)(C)CC,-4.116871778,16,42.0,3.719,-0.000561485645,0.002221332425,-0.008544170935,0,7,204.1377815,0,3,12,13.0,0.0,223.4726271060691,460.455,135.21146000000002
A-4179,CC(C)C1CCC(C)CC1OCC(O)CO,-2.006358589,16,42.0,3.2260000000000004,-0.002408081164,0.008127287062,-0.0135565186779999,0,5,204.1377815,0,3,12,12.0,0.0,202.8979356025512,351.281,130.10142
A-691,CCCCC(CC)COC(=O)OOC(C)(C)C,-4.659958513,17,45.0,1.033,-0.0016950310639999,0.006671149087,-0.009861151366,0,7,220.1371864,0,4,21,15.0,0.0,224.00178081058948,418.79,137.542664
A-1901,CC/C(C)=N/O[Si@](C)(O\N=C(C)\CC)O\N=C(C)\CC,-0.479234017,20,54.0,1.016,-0.000301427041,-0.005170459869,-0.010248177145,0,16,274.2433898,3,3,11,16.0,0.0,267.0018766432549,528.425,179.46371299999998
B-2222,CCCCCCCCCCNC(=O)C(C)O,-3.3605,16,42.0,9.488,-0.004356214798,0.006522022685,-0.030753969737,0,4,202.1450798,1,2,7,14.0,0.0,198.5053104336149,435.192,134.551967
B-1421,CCCCCCCCCCCCC,-7.5936,13,33.0,0.0289999999999999,-2.668111e-06,-0.0056084904169999,-0.016986944938,0,2,156.1395667,0,0,0,3.0,0.001,167.40700813016903,391.088,119.503256
A-5202,CCCCNC1CC(C)(C)NC(C)(C)C1,0.57461503,15,39.0,6.799,-4.338128e-06,-0.006824589273,-0.0241804959989999,0,4,184.1529731,2,0,14,13.0,0.0,202.3361894758029,395.587,132.878004
A-5033,CCCCNC(=S)N(CCCC)CCCC,-4.1840665060000015,16,42.0,1.966,-0.000142615934,-0.003271519448,-0.018291226097,0,4,216.2177605,2,0,15,17.0,0.0,210.2189600429477,450.65,154.096036
A-1468,CC(C)CCCCCCCCCCO,-5.000794033,14,36.0,8.471,-0.000971045659,0.000945581628,-0.0121737095619999,0,2,172.1389716,0,1,3,6.0,0.0,181.58633150013748,404.392,123.247127
A-1922,CCCCCCCCCCCCCO,-3.301824028,14,36.0,8.465,-0.000972037524,0.0009454451149999,-0.0121807646959999,0,2,172.1389716,0,1,3,8.0,0.0,172.68258142441974,404.422,123.24693899999998
B-1401,CC(C)CCOCC(O)COCCC(C)C,-1.3662,16,42.0,2.772,-0.00413550591,0.000438658852,-0.044132040137,0,3,204.1377815,0,3,11,14.0,0.001,198.6447863721536,429.651,131.883088
A-3690,CCOCCCC(C)OCCOCC(C)CO,-0.790860844,17,45.0,11.605,-0.001540620338,0.007804155428,-0.013541456887,0,4,220.1371864,0,4,19,13.0,0.001,211.743499732592,447.891,137.93989
A-853,CCCC(CC)CCCCCCCN,-3.697625957,14,36.0,0.8270000000000001,-6.633443e-06,-0.007742227789,-0.018408036834,0,3,170.1462699,1,0,6,9.0,0.001,178.1983406186208,405.047,125.610088
F-464,CCCCCCCCCCNCC(O)CO,-3.11,16,42.0,8.008,-0.004021667089,0.005894570866,-0.033100994393,0,5,202.1450798,1,2,6,12.0,0.001,190.1690449493048,438.451,134.85675600000002
A-4548,CCCC[N+](C)(CCCC)CCCC,0.485061956,14,36.0,1.425,-1.415169e-06,-0.005728139064,-0.104744618823,0,4,170.1462699,1,0,4,8.0,0.0,188.7254891684177,393.035,122.380512
A-5316,CC(O)CN(CCCN(C)C)CCCN(C)C,0.610105975,17,45.0,5.118,-0.001139418072,-0.0006109645099999,-0.032083512293,0,3,214.1590812,3,1,14,11.0,0.0,231.1243570611541,460.633,145.697959
B-3495,Cc1sc(C(=O)Nc2c(Br)cc(OC(F)(F)F)cc2Br)c(n1)C(F)(F)F,-5.5186,24,72.0,9.719,-0.002071220792,0.013081492737,-0.038515069962,0,30,522.0140449,2,2,7,9.0,0.0,295.3745163311031,509.232,219.782912
B-142,Oc1c(Cl)cc(Cl)c(Cl)c1Cc2c(O)c(Cl)cc(Cl)c2Cl,-3.4634,19,57.0,3.53,-0.001829452045,0.010275907679,-0.01035937676,0,20,400.856002,0,2,7,11.0,0.0,274.02977849298145,496.165,214.334695
B-2382,[O-][N+](=O)c1ccc(ONC=C2C=C(Br)C(=O)C(=C2)Br)c(c1)[N+]([O-])=O,-6.6637,22,66.0,1.55,-0.008527408904,0.021965654033,-0.034727957542,0,18,453.9631614,3,6,20,13.0,0.0,271.3410468137037,500.11300000000006,207.658156
C-1513,OC1=C(Br)C=C(\C=N\OC2=C(C=C(C=C2)[N+]([O-])=O)[N+]([O-])=O)C=C1Br,-5.19,24,66.0,1.564,-0.008519434214,0.021949962711,-0.034689466029,0,18,453.9631614,3,6,21,14.0,0.0,271.3304047647261,499.906,207.660227
B-2460,[O-][N+](=O)c1ccc(Oc2ccc(cc2[N+]([O-])=O)C(F)(F)F)cc1,-5.2151,23,63.0,8.709,-0.007210508605,0.024541154604,-0.0220957690719999,0,18,321.1452072,2,5,15,15.0,0.0,231.77934817501256,440.439,161.62096499999998
B-14,Oc1ccc(Cl)cc1C(=O)Nc2ccc(cc2Cl)[N+]([O-])=O,-5.3106,20,57.0,11.77,-0.005945726293,0.016215214555,-0.022956567758,0,14,319.056468,1,4,14,12.0,0.0,238.59770659477,450.191,174.748666
G-1020,ClC(Cl)CC(=O)NC2=C(Cl)C(=O)c1ccccc1C2=O,-5.03,19,54.0,1.4,-0.003256310679,0.011379463378,-0.016109773869,0,15,324.5032974,1,3,12,10.0,0.0,238.2409082859036,419.761,181.033086
A-14,Fc1ccc(cc1)C(=O)c2ccc(F)cc2,-4.396652185,16,42.0,1.68,-0.001921654444,0.00774630988,-0.006682111748,0,8,210.1357779,0,1,4,10.0,0.0,174.82176915576366,331.352,126.032995
C-708,OC(=O)C1=CC(=CC=C1O)C2=C(F)C=C(F)C=C2,-4.61,18,48.0,28.027,-0.008690920476,0.016964122459,-0.1134980425379999,0,12,242.1345878,0,3,10,13.0,0.0,187.4024159415456,373.26,130.042952
C-2119,O=C(OC1=CC=CC(=C1)N=C=S)C2=CC=CN=C2,-4.3,17,48.0,2.371,-0.001462554162,0.002172277792,-0.00803831704,0,5,248.2165704,2,2,13,12.0,-0.001,208.88593755673497,415.153,157.248725
A-2775,Nc1ccc(Cl)cc1C(=O)c2ccccc2Cl,-7.425088937999999,17,45.0,6.801,-0.001954608627,0.000426179973,-0.016431735746,0,9,257.05155,1,1,12,11.0,0.0,194.16160765322064,420.471,157.365816
B-2494,ON(c1ccccc1)C(=O)c2ccc(Cl)cc2Cl,-3.6723,17,48.0,5.062,-0.002499060993,0.0087541440009999,-0.008767721982,0,11,273.0509549,1,2,10,9.0,-0.001,221.48425486557392,392.222,161.519587
F-406,COC1=C(C=CC(=C1)OC2=C(C=C(C=C2)Cl)Cl)[N+](=O)[O-],-5.91,19,54.0,7.391,-0.004827569474,0.01029670688,-0.026860127858,0,12,305.0497648,1,4,15,13.0,0.0,233.4040407462772,430.68,172.19841
A-2218,Clc1ccc(NC(=O)Nc2ccc(Cl)c(Cl)c2)cc1,-6.45772642,17,51.0,8.394,-0.0001505963,-0.000765844552,-0.011911313075,0,12,306.5111908,2,1,10,12.0,0.0,235.29033204275632,443.074,175.353371
F-717,NC1=C2C=CC(Cl)=CC2=NC2=C1C=CC=C2,-1.73,16,42.0,2.8310000000000004,-4.210841e-06,-0.004970630302,-0.009586008502,0,5,219.6059107,2,0,7,11.0,0.001,183.55360162288343,348.13800000000003,143.499024
F-716,NC1=C2C=C(Cl)C=CC2=NC2=C1C=CC=C2,-2.42,16,42.0,1.55,-3.376067e-06,-0.00464578287,-0.007882916857,0,5,219.6059107,2,0,8,8.0,-0.001,184.9702825598926,338.819,139.111756
F-714,NC1=C2C(Cl)=CC=CC2=NC2=C1C=CC=C2,-1.58,16,42.0,1.596,-5.2261490000000005e-06,-0.004905166151,-0.0126831691969999,0,5,219.6059107,2,0,8,11.0,0.0,183.9211377399536,337.922,142.817605
F-676,O=C(O)C1=C(N=NC2=CC=C(O)C=C2)C=CC=C1Cl,-3.0,19,51.0,8.317,-0.003970650072,0.008476130054,-0.0249045303379999,0,11,267.6041255,2,3,14,14.0,-0.001,213.97400293271545,402.742,158.096832
F-1174,O=C(O)C1=C(Cl)C=C(N=NC2=CC=C(O)C=C2)C=C1,-2.62,19,51.0,16.144000000000002,-0.00635649485,0.011982273891,-0.071546273683,0,9,267.6041255,2,3,18,14.0,0.001,212.96961525291528,425.384,158.863177
F-263,O=C(O)C1=C(N=NC2=CC=C(O)C=C2)C=CC(Cl)=C1,-3.86,18,51.0,7.27,-0.0039464151319999,0.009500690943,-0.018860454916,0,10,267.6041255,2,3,10,11.0,0.0,214.1320909197066,409.034,154.45253200000002
B-2246,Oc1ccc(cc1C(=O)Nc2ccc(Cl)cc2)[N+]([O-])=O,-5.122000000000001,19,54.0,8.318,-0.006337060669,0.014892620393,-0.030709889564,0,11,283.60353039999995,2,4,16,14.0,0.001,220.425562030821,395.601,155.954427
B-2247,Oc1c(cccc1[N+]([O-])=O)C(=O)Nc2ccc(Cl)cc2,-4.5452,19,54.0,6.25,-0.006296072735,0.013782013876,-0.026611334564,0,10,283.60353039999995,2,4,17,17.0,0.0,219.9495051413812,424.42,159.412626
B-2074,OC(=O)c1cccnc1Nc2cccc(c2)C(F)(F)F,-4.1718,20,54.0,8.416,-0.004946358929,0.013194149171,-0.028014861024,0,12,273.1469924,2,2,14,12.0,-0.001,208.3349669350831,406.66,146.766923
F-712,NC1=C2C=CC=C(F)C2=NC2=C1C=CC=C2,-1.66,16,42.0,2.44,-6.5540651e-05,-0.003646885697,-0.0135064902599999,0,5,203.1513763,2,0,9,12.0,0.0,171.9403760939444,325.841,131.743332
F-711,NC1=C2C=CC(F)=CC2=NC2=C1C=CC=C2,-2.12,16,42.0,3.802,-9.7055817e-05,-0.003370596228,-0.009330263158,0,5,203.1513763,2,0,7,11.0,-0.001,172.35473352976615,327.75800000000004,131.708507
F-710,NC1=C2C=C(F)C=CC2=NC2=C1C=CC=C2,-2.4,16,42.0,4.119,-0.000102423239,-0.003096863057,-0.008739957761,0,5,203.1513763,2,0,8,8.0,0.001,173.64002424602242,319.388,127.376409
F-713,NC1=C2C(F)=CC=CC2=NC2=C1C=CC=C2,-0.95,16,42.0,3.953,-8.0950726e-05,-0.003907885685,-0.01375910399,0,5,203.1513763,2,0,8,11.0,0.0,172.83468544384186,324.139,131.02751899999998
B-4282,c1ccc2c(c1)ccc3ncccc23,-3.3574,14,36.0,2.152,-1.302133e-06,-0.005136080079,-0.0057215119689999,0,2,170.1462699,1,0,8,9.0,0.0,155.55168382038335,299.55400000000003,121.872689
B-875,c1ccc2c(c1)cnc3ccccc23,-2.7763,14,36.0,1.429,-5.5989e-07,-0.004969870156,-0.005132764656,0,1,170.1462699,1,0,9,9.0,0.0,155.4331919386739,299.338,122.563528
B-4281,c1ccc2nc3ccccc3cc2c1,-3.6691,14,36.0,0.775,-6.710729999999999e-07,-0.004894294088,-0.005113100248,0,1,170.1462699,1,0,7,11.0,0.0,155.94881985722083,302.795,122.60786
F-721,C1=CC=C2C(=C1)C(=C3C(=N2)C=CC=C3[N+](=O)[O-])N,-1.84,18,48.0,8.097000000000001,-0.003353949064,0.003415170636,-0.021309862906,0,6,230.1584862,3,2,13,12.0,0.0,191.0579908110366,350.704,144.873118
F-1177,C1=CC=C(C(=C1)NN=C2C=CC(=O)C(=C2)C(=O)O)[N+](=O)[O-],-2.01,21,57.0,22.57,-0.009973338883,0.017952756754,-0.089491653401,0,11,278.1567009,3,5,20,18.0,0.0,219.67820401105985,421.848,156.941624
B-2720,ON(c1ccccc1)C(=O)c2cc(cc(c2)[N+]([O-])=O)[N+]([O-])=O,-3.6367,22,60.0,24.216,-0.011179381348,0.022239933417,-0.071120677648,0,13,294.1561059,3,6,14,15.0,0.001,230.0413293877749,418.796,164.57853500000002
F-279,C1C2=CC=CC=C2C3=C1C=C(C=C3)[N+](=O)[O-],-4.72,16,42.0,10.921,-0.004722066537,0.006840992702,-0.017988806214,0,4,202.1450798,1,2,9,12.0,0.001,175.01586258268924,339.76,132.84253600000002
C-1982,S=C=NC1=CC=C(C=C1)C2=CC=CC=C2,-4.85,15,39.0,1.53,-4.3979026000000005e-05,-0.001360991325,-0.002650693535,0,1,202.2110573,1,0,13,13.0,0.0,182.92800342087293,374.715,138.66492
A-5538,c1ccc2cc3ccccc3cc2c1,-6.44481058,14,36.0,0.0,-0.0,-0.0046679129159999,-0.004256253218,0,0,168.15030259999995,0,0,14,14.0,0.0,151.36042991080618,325.5,126.015637
B-3569,c1ccc2c(c1)ccc3ccccc23,-5.1903,14,36.0,0.929,-2.47263e-07,-0.004320204514,-0.004262020645,0,0,168.15030259999995,0,0,7,9.0,0.0,157.39487362775355,301.254,124.672251
A-196,BrCc1ccc(cc1)c2ccccc2C#N,-6.656649109,16,42.0,8.254,-2.6042763e-05,-0.006552570824,-0.012460537215,0,5,262.0605336,1,0,9,11.0,0.0,196.60937034153773,373.495,152.924552
A-2739,CN1C(=O)C(=N/Nc2ccc(Cl)c(Cl)c2)/C(=C(C#N)C1=O)C,-6.925783782000001,20,60.0,5.729,-0.0021197343539999,0.0049787072759999,-0.018212269675,0,12,327.0818004,4,2,15,13.0,0.0,265.8088307988386,436.111,188.268516
C-798,OC(=O)CC1=CC=CC=C1OC2=C(Cl)C=C(Cl)C=C2,-4.86,17,51.0,7.621,-0.001565575503,0.007259175315,-0.008250084408,0,10,287.0543925,0,3,11,12.0,-0.001,224.5613417128897,399.3080000000001,168.675276
F-405,O=C(O)C(OC1=C(Cl)C=CC=C1)OC1=C(Cl)C=CC=C1,-2.83,19,54.0,9.887,-0.005084275689,0.008221999395,-0.0335288995789999,0,12,303.0537974,0,4,14,14.0,0.0,232.94101590487296,417.698,174.131202
H-434,CC1=C(Cl)C(CC2=C(Cl)C=CC=C2Cl)=CC=C1Cl,-7.99,17,48.0,2.91,-2.7718000000000005e-07,0.000178576173,-0.003539177773,0,12,309.96205289999995,0,0,9,11.0,0.0,243.96878981999583,425.865,184.002737
H-435,CC1=C(Cl)C(CC2=CC=C(Cl)C=C2Cl)=CC=C1Cl,-7.4,16,48.0,2.196,-5.891129999999999e-07,0.000610612023,-0.0028363501289999,0,13,309.96205289999995,0,0,11,11.0,0.0,239.66876559182967,440.413,182.119487
H-438,CC1=C(Cl)C=C(Cl)C(CC2=CC=C(Cl)C=C2Cl)=C1,-7.49,16,48.0,7.362999999999999,-4.52736e-07,0.000539279525,-0.006848116269,0,12,309.96205289999995,0,0,13,9.0,0.0,245.5171511392315,439.895,183.896177
H-436,CC1=C(Cl)C=C(CC2=CC(Cl)=CC=C2Cl)C(Cl)=C1,-8.03,15,48.0,6.86,-8.784050000000001e-07,0.000756344908,-0.012490359386,0,13,309.96205289999995,0,0,7,10.0,0.0,239.1174406964204,449.518,181.246395
H-519,CC1=C(Cl)C=C(Cl)C(CC2=CC(Cl)=CC=C2Cl)=C1,-8.06,16,48.0,6.933,-4.49046e-07,0.00059345663,-0.0093234547439999,0,13,309.96205289999995,0,0,11,10.0,0.0,242.3909365672548,434.472,183.522778
H-437,CC1=C(Cl)C=C(Cl)C(CC2=C(Cl)C=CC=C2Cl)=C1,-8.36,16,48.0,2.657,-2.73854e-07,0.000137468228,-0.0033970921779999,0,12,309.96205289999995,0,0,10,10.0,0.0,244.4499334443556,425.018,183.813062
H-439,CC1=C(Cl)C(Cl)=C(Cl)C(CC2=CC=C(Cl)C=C2)=C1,-8.18,17,48.0,4.371,-2.80002e-07,-5.6092929000000006e-05,-0.00597784738,0,12,309.96205289999995,0,0,9,9.0,0.0,243.92456699075728,441.067,184.412724
H-440,CC1=C(CC2=C(Cl)C=CC=C2)C(Cl)=C(Cl)C(Cl)=C1,-7.24,15,48.0,12.796,-7.23946e-07,4.44728e-06,-0.0281678368679999,0,12,309.96205289999995,0,0,8,9.0,0.0,240.8774363863606,410.435,180.090357
H-441,CC1=C(CC2=CC=C(Cl)C=C2)C(Cl)=C(Cl)C(Cl)=C1,-7.44,15,48.0,0.762,-5.54394e-07,0.000307759031,-0.004566711013,0,12,309.96205289999995,0,0,6,8.0,0.0,239.8914094508736,428.849,178.168238
B-36,ClC(Cl)C(c1ccc(Cl)cc1)c2ccccc2Cl,-6.5052,18,48.0,1.418,-5.28073e-07,0.000242753221,-0.002858012175,0,12,309.96205289999995,0,0,9,10.0,0.0,237.05967584336256,423.947,181.569636
C-733,ClC(Cl)C(C1=CC=C(Cl)C=C1)C2=CC=C(Cl)C=C2,-7.2,17,48.0,0.929,-7.5354e-07,0.000571563883,-0.0037206633899999,0,12,309.96205289999995,0,0,9,9.0,0.0,237.4029494808725,430.756,181.675428
C-757,OC(=O)C1=CC=CC=C1NC2=CC(=CC=C2)C(F)(F)F,-4.4,20,54.0,9.301,-0.0045201447,0.010556963623,-0.036862507137,0,13,271.1510251,1,2,12,11.0,0.0,210.80545386517792,389.527,148.727875
A-3289,Nc1cc(c(O)c2C(=O)c3c(N)cc(c(O)c3C(=O)c12)[S](O)(=O)=O)[S](O)(=O)=O,-1.799112619,28,78.0,0.006,-0.026588978987,0.031983926322,-0.075513780878,0,20,420.287333,2,10,24,22.0,0.0,287.31895830927886,473.892,228.231078
D-1082,Nc1ccc(N)c2C(=O)c3ccccc3C(=O)c12,-5.859,18,48.0,5.165,-0.001668202734,2.4202722e-05,-0.021478842071,0,6,228.16251890000004,2,2,13,13.0,-0.001,193.07911662695287,346.80300000000005,146.29040700000002
B-1087,Oc1c2ccccc2cc3ccccc13,-4.7329,15,39.0,4.513999999999999,-0.0020166272,0.000372974284,-0.0153702045729999,0,2,184.1497075,0,1,9,13.0,0.0,164.77153053663562,315.282,129.115721
F-957,O=C(C(=O)C1=CC=CC=C1)C1=CC=CC=C1,-2.8,16,42.0,0.0,-0.000338100314,0.000904100123,-0.001115648372,0,2,200.1491124,0,2,8,14.0,0.0,181.66936159026616,326.72,133.512211
B-371,O=C(OC(=O)c1ccccc1)c2ccccc2,-4.3546,17,45.0,5.685,-0.002805116867,0.004128957378,-0.017014661489,0,5,216.1485174,0,3,13,16.0,0.0,188.73754866098628,371.451,137.470559
B-961,OC(=O)[C@@]1(O)c2ccccc2c3ccccc13,-1.9657,17,45.0,4.503,-0.0020577027849999,0.007572117094,-0.004895037527,0,4,216.1485174,0,3,14,13.0,0.0,185.1897573449376,356.606,139.20240800000002
F-391,O=C(O)C1=C(C(=O)C2=CC=C(O)C=C2)C=CC=C1,-2.73,18,48.0,11.164,-0.0072344589709999,0.0167612482379999,-0.048471477045,0,6,232.14792230000003,0,4,13,13.0,-0.001,195.71754706583087,361.365,140.060688
B-2205,OC(=O)c1ccccc1C(=O)c2ccccc2O,-2.3428,18,48.0,17.344,-0.006844109771,0.014540393196,-0.057474820366,0,6,232.14792230000003,0,4,13,13.0,-0.001,195.2113366292097,355.124,142.22939399999998