Name,SMILES,Solubility,AtomNum,DegFreedom,Dipole,Ghb,Gsasa,Gsolv,HNum,LP,MolWt,NNum,ONum,PiCenters,PiDeloc,Quadrupole,Volume,SASA,Polarizabilty
B-351,Nc1ccc2ccccc2c1,-2.8795,11,27.0,6.437,-6.693147000000001e-06,-0.005895226524,-0.0117778984119999,0,1,134.1140622,1,0,8,8.0,0.0,139.19911716860207,276.391,96.157146
B-4001,Nc1cccc2ccccc12,-1.9255,11,27.0,5.501,-7.777559e-06,-0.0054287080149999,-0.013512385273,0,1,134.1140622,1,0,8,10.0,0.0,126.68852942962089,263.85400000000004,94.914751
B-2182,Nc1ccc(cc1)[S](=O)(=O)Nc2sc(cn2)C(O)=O,-2.8741,19,51.0,12.633,-0.012697762371,0.016164236545,-0.068862539711,0,13,290.2546631,3,4,21,17.0,0.0,216.8068421799429,409.067,167.755204
F-992,C1=COC(CNC2=NC=NC3=C2N=CN3)=C1,-3.95,16,42.0,1.602,-0.000263713608,-0.005463358658,-0.015759517605,0,6,206.14028,5,1,10,11.0,-0.001,170.0588242662995,351.853,124.020452
B-3364,Cc1ccnc(NC(=O)c2cnccn2)n1,-0.7308,16,42.0,5.271,-0.0019144661859999,-0.002459020804,-0.0148774169549999,0,6,206.14028,5,1,15,13.0,0.0,177.51167706835562,351.79400000000004,127.81856100000002
B-287,CN1C=CC(=O)c2ccccc12,-0.9818,12,30.0,3.302,-0.001645999649,0.00165510613,-0.010302995035,0,3,150.11346709999998,1,1,8,11.0,0.0,135.58199677964564,278.066,102.030644
B-1318,CN1C(=O)C=Cc2ccccc12,-1.0466,12,30.0,3.067,-0.000625153212,0.00213156466,-0.002027014487,0,2,150.11346709999998,1,1,9,10.0,0.0,136.94020571227514,308.879,102.415651
A-1149,Cc1ccc2cccc(O)c2n1,-1.730618615,12,30.0,4.993,-0.002320300346,0.001306115732,-0.0150427454419999,0,3,150.11346709999998,1,1,6,9.0,0.001,135.9120623999821,274.241,100.185227
B-1319,CC1=CC(=O)c2ccccc2N1,-1.2019,12,30.0,4.534,-0.002050335269,0.00094106621,-0.012661619061,0,4,150.11346709999998,1,1,9,8.0,0.0,135.96434393262615,273.403,100.123617
B-3728,OC(=O)Cc1c[nH]c2ccccc12,-2.0674,13,33.0,2.184,-0.001763670577,0.006005658865,-0.002124207112,0,5,166.1128721,1,2,9,10.0,0.0,140.98604245647408,298.448,104.949605
C-1791,CCOC(=O)C1=CC=C(C=C1)N=C=S,-4.05,14,36.0,12.757,-0.002276338428,0.005182551266,-0.018049501275,0,5,198.1776595,1,2,16,12.0,0.001,170.13057453667994,369.92,124.017482
F-100,CC(=O)NC1=CC2=C(C=C1)COC2=O,-2.6,14,36.0,5.39,-0.00248549542,0.0077369822109999,-0.007715884191,0,6,182.112277,1,3,12,9.0,0.0,156.96326407925076,318.17400000000004,110.684252
C-1939,CC(=O)OC1=CC2=C(NC(=O)C2)C=C1,-1.54,14,36.0,4.824,-0.002240957678,0.0068792152119999,-0.012962947594,0,7,182.112277,1,3,9,9.0,0.0,156.64916133493568,315.973,108.276106
F-566,O=C(O)C=CC(=O)NC1=CC=CC=C1,-2.72,14,36.0,4.083,-0.0037935030219999,0.012229747561,-0.007150603385,0,5,182.112277,1,3,14,12.0,0.0,155.60699023803554,327.54,109.146614
B-1173,OC(=O)\C=C/C(=O)Nc1ccccc1,-2.2815,14,36.0,17.340999999999998,-0.004968223215,0.009470353515,-0.032436507659,0,6,182.112277,1,3,13,10.0,0.0,156.23150241002952,326.083,109.949902
B-2697,C=CCOC1=N[S](=O)(=O)c2ccccc12,-3.1727,15,39.0,7.905,-0.008081275861,0.007380476607,-0.022742494471,0,9,214.1770644,1,3,11,12.0,0.0,168.9248064963574,352.064,132.973414
A-742,Nc1cccc2ccc(cc12)[S](O)(=O)=O,-1.6822793230000002,15,39.0,8.906,-0.013670911898,0.009426559004,-0.040449766665,0,7,214.1770644,1,3,14,13.0,0.0,166.70528345319025,333.857,130.782815
C-2078,NC1=CC=CC2=C1C=CC(=C2)[S](O)(=O)=O,-2.24,15,39.0,7.053999999999999,-0.013738154397,0.009526169167,-0.039303681569,0,7,214.1770644,1,3,12,15.0,0.0,167.0552435345609,335.066,131.165801
C-2083,NC1=CC(=CC2=C1C=CC=C2)[S](O)(=O)=O,-2.34,15,39.0,10.970999999999998,-0.01379617073,0.009652554995,-0.036932083157,0,9,214.1770644,1,3,10,9.0,0.0,167.9523482576802,338.635,130.530342
C-1339,NC1=C(C=CC2=C1C=CC=C2)[S](O)(=O)=O,-2.96,15,39.0,6.52,-0.0102747720869999,0.009370144257,-0.025278567795,0,9,214.1770644,1,3,6,8.0,0.0,167.0981936697164,319.735,131.531283
C-2094,NC1=CC2=C(C=C1)C(=CC=C2)[S](O)(=O)=O,-2.75,15,39.0,7.615,-0.010345762885,0.007756035671,-0.042761797247,0,9,214.1770644,1,3,7,9.0,0.0,168.42350973826152,319.723,128.146871
C-2109,NC1=CC=CC2=C1C(=CC=C2)[S](O)(=O)=O,-3.07,15,39.0,3.774,-0.009173480865,0.008074276329,-0.026571640105,0,11,214.1770644,1,3,6,8.0,0.0,169.36847828209298,313.60400000000004,130.86989
F-519,NC1=CC2=C(S(=O)(=O)O)C=CC=C2C=C1,-2.54,15,39.0,10.608,-0.014393622627,0.009766267641,-0.038654255186,0,7,214.1770644,1,3,15,13.0,0.0,173.10999376380107,333.872,131.880539
C-2074,NC1=CC2=C(C=C1)C=CC(=C2)[S](O)(=O)=O,-3.05,15,39.0,7.706,-0.013906580774,0.009281198679,-0.0422784566249999,0,10,214.1770644,1,3,6,11.0,0.0,178.77775114366062,347.42400000000004,130.768626
A-1793,Nc1ccc2cc(ccc2c1)[S](O)(=O)=O,-3.269616058,15,39.0,2.135,-0.011390331185,0.0088764537699999,-0.037869162855,0,10,214.1770644,1,3,12,7.0,0.0,173.1720507288281,337.409,129.84886200000005
C-2101,NC1=CC=CC2=C1C=CC=C2[S](O)(=O)=O,-2.35,15,39.0,2.873,-0.009497121183,0.007778614838,-0.0403994801159999,0,8,214.1770644,1,3,8,9.0,0.0,168.666383451717,317.098,130.74926200000002
C-2103,NC1=CC=C(C2=C1C=CC=C2)[S](O)(=O)=O,-2.91,15,39.0,3.215,-0.009998579331,0.008095226939,-0.036471316333,0,10,214.1770644,1,3,8,8.0,0.0,166.91573847083495,319.217,129.179466
C-695,NC1=C(C2=CC=CC=C2C=C1)[S](O)(=O)=O,-1.7,15,39.0,7.576,-0.010307488706,0.008912308987,-0.026109996001,0,9,214.1770644,1,3,7,9.0,0.0,172.4615777039098,325.564,132.23268000000002
B-3366,CC1(C)OC(=O)c2cc(ccc12)[N+]([O-])=O,-3.0516,15,39.0,2.4290000000000003,-0.005120791989,0.015370515285,-0.013407561185,0,8,198.1116819,1,4,13,10.0,0.0,166.4156019915597,335.582,116.64981
B-3367,CCC1OC(=O)c2cc(ccc12)[N+]([O-])=O,-2.55,15,39.0,2.436,-0.00511849614,0.015373745952,-0.013393056158,0,8,198.1116819,1,4,13,11.0,0.0,157.18620592623066,335.581,116.649963
A-668,Nc1ccc2c(O)cc(cc2c1)[S](O)(=O)=O,-2.679885573,16,42.0,10.811,-0.015658086243,0.016050626331,-0.042958705144,0,11,230.1764693,1,4,6,10.0,0.0,176.75319622802482,346.351,135.161145
A-4849,Nc1ccc2cc(cc(O)c2c1)[S](O)(=O)=O,-2.883311239,16,42.0,4.82,-0.015300036839,0.01521285545,-0.04094038786,0,10,230.1764693,1,4,16,12.0,0.0,185.43372626003347,355.795,136.528041
F-514,NC1=CC=C2C(O)=CC=CC2=C1S(=O)(=O)O,-2.06,16,42.0,1.955,-0.011565701506,0.014059361828,-0.038040946349,0,11,230.1764693,1,4,8,7.0,0.0,173.7611028386845,329.375,136.072242
F-344,CC(=O)C1=C(C(=O)O)C(C(=O)O)=CN=C1C,-1.35,16,42.0,10.55,-0.00510348366,0.017406492337,-0.023426392766,0,8,214.11108680000004,1,5,16,14.0,0.0,180.77724655842147,346.276,119.584291
F-688,NS(=O)(=O)C1=CC(S(=O)(=O)C2=CC(O)=CC=C2)=CS1,-2.72,19,51.0,6.983,-0.018298991535,0.02540296008,-0.0504520322559999,0,17,310.305449,1,5,11,8.0,0.0,228.33544827423168,403.008,179.45885900000002
F-685,NS(=O)(=O)C1=CC(S(=O)(=O)C2=CC=C(O)C=C2)=CS1,-3.03,19,51.0,6.6,-0.018788118308,0.024381021962,-0.054137482106,0,16,310.305449,1,5,7,11.0,-0.001,227.2003009606865,405.318,178.228276
F-507,COc1cc(c2COC(=O)c2c1OC)[N+]([O-])=O,-3.21,17,45.0,14.644,-0.006886593645,0.0139849510649999,-0.06546115121,0,10,230.1104917,1,6,15,12.0,0.0,176.05327989185932,354.82199999999995,127.696681
A-974,COC(=O)c1ccc(C(=O)OC)c(c1)[N+]([O-])=O,-2.835904882,17,45.0,1.419,-0.004236006547,0.015863490501,-0.012166407557,0,13,230.1104917,1,6,13,10.0,-0.001,197.44803683731288,397.622,127.008323
F-684,NS(=O)(=O)C1=CC(S(=O)(=O)C2=CC=C(O)C=C2)=CO1,-2.4,19,51.0,2.4930000000000003,-0.017044919656,0.024714942631,-0.04496542406,0,16,294.2400665,1,6,11,9.0,0.0,215.96769846574688,403.996,161.691383
B-305,Nc1ccc(c2ccc(cc12)[S](O)(=O)=O)[S](O)(=O)=O,-1.643,19,51.0,7.115,-0.0238550424489999,0.022782874947,-0.072509846029,0,16,294.24006660000003,1,6,11,12.0,0.0,206.9349758556161,389.115,165.268148
B-304,Nc1ccc(c2cc(ccc12)[S](O)(=O)=O)[S](O)(=O)=O,-0.2592,19,51.0,6.29,-0.02305152736,0.021785682509,-0.070592784378,0,15,294.24006660000003,1,6,12,13.0,0.0,206.90646739074413,384.531,165.126281
A-3001,Nc1cc(cc2cc(cc(O)c12)[S]([O-])(=O)=O)[S](O)(=O)=O,-1.476228892,20,54.0,8.937999999999999,-0.027935448268,0.028883140395,-0.080832327905,0,14,310.2394715,1,7,15,20.0,0.001,213.97357518078869,405.609,174.340756
B-3074,Nc1c2cc(ccc2c(cc1[S](O)(=O)=O)[S](O)(=O)=O)[S](O)(=O)=O,-0.3188,23,63.0,5.519,-0.036242117628,0.03778650808,-0.094037418702,0,22,374.3030687,1,9,13,12.0,0.001,247.09504705392743,447.0,203.605567
B-4345,O[P](O)(=O)c1cccc2ccccc12,-1.6194,14,36.0,14.745,-0.010819124543,0.0111250634349999,-0.029360128333,0,5,199.0793358,0,3,11,10.0,0.0,160.9092325113281,318.636,125.024489
B-2750,Clc1cc(Cl)c2c(Cl)c(Cl)c(Cl)c(Cl)c2c1Cl,-8.775,14,45.0,0.236,-1.65834e-07,0.003648349415,-0.00424619441,0,22,368.2779221,0,0,0,5.0,0.0,240.1829584328096,410.11300000000006,192.918678
B-3995,Cc1cccc2ccccc12,-3.7413,11,27.0,1.818,-3.559920000000001e-07,-0.003672061313,-0.004133925746,0,1,132.1180949,0,0,7,8.0,0.0,131.28974020102484,256.058,94.563881
B-3999,Cc1ccc2ccccc2c1,-3.762,11,27.0,3.933,-6.70663e-07,-0.003862693503,-0.00466562505,0,1,132.1180949,0,0,7,8.0,0.0,136.06975016372618,269.351,98.444913
A-4916,OC(Cn1ccnc1)c2ccc(Cl)cc2Cl,-3.264007824,15,42.0,7.65,-0.001570675526,0.00252127327,-0.011717191583,0,10,247.0367814,2,1,10,8.0,0.0,193.63432785601293,406.8080000000001,145.068029
B-1772,CC(OC(=O)Nc1cccc(Cl)c1)C#C,-2.6172,14,39.0,6.988,-0.001170515828,0.000762574552,-0.01331135722,0,9,213.5765455,1,2,8,10.0,0.0,183.58637190892708,367.12,129.245615
B-2655,CCOC(=O)CN1C(=O)Sc2cccc(Cl)c12,-3.762,15,45.0,15.392,-0.003966635251,0.010063406807,-0.049386055055,0,11,261.64073790000003,1,3,12,11.0,0.0,201.720929019878,372.714,155.46903400000002
F-481,NC1=CC=C(S(=O)(=O)NC2=CN=C(I)C=C2)C=C1,-1.81,17,48.0,5.322,-0.006911874173,-0.00028665615,-0.025728863171,0,12,365.1062737,3,2,11,9.0,0.0,227.52517748279945,430.492,179.565449
F-62,C=CCC1=CC=C2C=NC=NC2=C1O,-3.62,14,36.0,4.418,-0.001267437584,-0.001525556674,-0.012377408195,0,5,176.1309062,2,1,4,10.0,0.0,157.25570306056102,322.67,116.932314
B-2436,Cc1ccccc1Oc2cccnn2,-1.969,14,36.0,1.966,-4.1283035e-05,-0.004618311547,-0.006480995677,0,4,176.1309062,2,1,6,8.0,0.0,160.03451849309567,316.567,118.097572
C-2013,OC1CCN2C(=O)C3=C(C=CC=C3)N=C12,-2.1,15,39.0,4.085,-0.002942837633,0.006084952059,-0.011433200203,0,5,192.1303112,2,2,10,10.0,0.0,156.2758383853546,312.839,120.856708
B-992,O[C@H]1CCN2C(=O)c3ccccc3N=C12,-2.106,15,39.0,4.085,-0.002942763994,0.0060848993189999,-0.0114327688259999,0,5,192.1303112,2,2,10,11.0,0.0,156.2774183072407,312.839,120.856714
B-215,CC1(C(=O)NC(=O)NC1=O)c2ccccc2,-2.4581,16,42.0,5.327000000000001,-0.002313491087,0.008615070935,-0.0027596321019999,0,4,208.1297161,2,3,21,15.0,0.0,183.87409741645905,346.835,127.423557
B-4420,NC(=S)Nc1cccc2ccccc12,-2.5278,14,36.0,8.596,-4.6854555e-05,-0.002392264246,-0.011647387231,0,4,192.1962887,2,0,10,10.0,0.0,169.33630135798197,334.25199999999995,131.311148
B-1824,COc1cccc2ccccc12,-4.1992,12,30.0,2.423,-3.834168e-05,-0.0038427517719999,-0.0132505537609999,0,2,148.11749980000002,0,1,7,8.0,0.0,138.4449188777101,285.392,104.515357
B-4014,OCc1cccc2ccccc12,-1.7444,12,30.0,7.242000000000001,-0.002834848587,0.002682498616,-0.0136581678389999,0,2,148.11749980000002,0,1,9,9.0,-0.001,141.02779163522018,283.182,102.83307
B-1989,OC(=O)C1=CCCc2ccccc12,-2.7939,13,33.0,0.304,-0.001187862883,0.00607201046,0.0029644073469999,0,2,164.1169047,0,2,16,12.0,0.0,152.4604953805656,317.769,109.075829
C-1697,OC(=O)/C=C/C=C/C1=CC=CC=C1,-3.64,13,33.0,22.96,-0.006300006538,0.007556343658,-0.060039618289,0,4,164.1169047,0,2,12,10.0,-0.001,149.34738953554665,337.487,107.032687
B-2253,OC(=O)C1CC(=O)c2ccccc2C1,-2.1031,14,36.0,6.065,-0.002293216449,0.007369164046,-0.012124069162,0,4,180.1163097,0,3,13,15.0,0.001,140.6080307555113,314.409,112.602847
B-2477,CC(=O)Oc1ccccc1\C=C\C(O)=O,-3.1559,15,39.0,21.952,-0.007988448706,0.0116662334969999,-0.08278144159,0,7,196.1157146,0,4,13,13.0,0.0,167.6546549499979,352.767,117.652721
B-2354,CC(=O)N[C@@H](Cc1cc(Br)c(O)c(Br)c1)C(O)=O,-2.1830000000000003,16,48.0,12.658,-0.002667849333,0.0072910407239999,-0.024873216939,0,12,369.9294734,1,4,19,16.0,0.0,224.13022681370867,435.761,167.065374
B-3524,COC(=O)C1(CC1)[S](=O)(=O)c2ccc(Br)cc2,-3.6703,16,45.0,1.09,-0.006983633614,0.0107031639369999,-0.0225163486409999,0,11,308.0840298,0,4,12,12.0,0.0,214.80018453076624,399.36800000000005,157.761203
A-2805,CC1COc2ccccc2N1C(=O)C(Cl)Cl,-3.835390149,15,42.0,5.971,-0.001591006065,0.005721888501,-0.009475883904,0,11,249.0294831,1,2,6,7.0,0.0,195.49514345421505,347.18,141.54491000000002
F-588,CC(=O)NC(CSC1=CC(Cl)=C(Cl)C=C1)C(=O)O,-2.89,16,48.0,4.62,-0.0013184960939999,0.009837565999,-0.001356310234,0,13,297.0936754,1,3,17,12.0,0.001,231.95120329560015,447.475,169.420936
B-2394,CC(=O)N[C@@H](CSc1ccc(Cl)c(Cl)c1)C(O)=O,-2.8868,16,48.0,3.847,-0.001312469711,0.009763370489,-0.001254363357,0,13,297.0936754,1,3,16,12.0,-0.001,232.013560908343,449.24,169.370363
F-590,CC(=O)NC(CSC1=C(Cl)C=CC=C1Cl)C(=O)O,-2.31,16,48.0,3.51,-0.001094082047,0.008062801504,-0.000569397624,0,14,297.0936754,1,3,15,12.0,0.0,232.52743758569247,420.86300000000006,169.178866
B-2694,CCOC(=O)Cc1[nH]nc2ccc(Cl)cc12,-3.0256,15,42.0,11.616,-0.002616832338,0.0020398561869999,-0.022878264569,0,8,227.5832487,2,2,10,12.0,0.0,183.63408689808372,384.344,137.355996
C-422,OC(=O)CC1=CC(=C(OCC=C)C=C1)Cl,-3.13,15,39.0,4.604,-0.002539934533,0.009710654349,-0.016338607338,0,8,215.5692472,0,3,11,9.0,0.0,178.7206478019381,356.92,128.913496
B-3521,COC(=O)C1(CC1)[S](=O)(=O)c2ccc(Cl)cc2,-3.3086,16,45.0,3.858,-0.005480903392,0.009705749096,-0.02131829732,0,12,263.6334396,0,4,17,13.0,0.0,208.77202206867264,410.066,154.238547
B-367,Cc1ccc2ccc(C)nc2c1,-1.9424,12,30.0,0.84,-1.838225e-06,-0.004769121489,-0.0063994565799999,0,2,146.1247981,1,0,5,8.0,-0.001,148.4323067321171,282.08,104.811075
B-1635,Cc1cc(C)c2ccccc2n1,-1.9424,12,30.0,2.9610000000000003,-1.992767e-06,-0.004666094629,-0.00618326973,0,2,146.1247981,1,0,9,11.0,-0.001,143.05806544165017,269.137,101.325585
B-1483,Cc1nn(c2ccccc2)c(C)c1N=O,-3.7355,15,39.0,2.917,-0.000144138993,-0.002956645575,-0.00755510035,0,4,190.1376094,3,1,9,12.0,0.0,177.7258935412821,301.111,121.271352
B-2917,Cn1c2ccccc2c(C(N)=O)c1C(N)=O,-1.8184,16,42.0,0.563,-0.001677085559,0.007749532829,-0.001391777902,0,3,206.1370144,3,2,15,12.0,0.0,186.43573302733824,348.902,126.747507
C-2017,CCC1=C(NC(=O)N1)C(=O)C2=CC=NC=C2,-1.99,16,42.0,12.827,-0.003057859669,0.005153176414,-0.033603067284,0,6,206.1370144,3,2,13,12.0,0.0,177.0536063662244,335.469,126.545342
E-880,O=S(=O)(Nc(nccc1)c1)c(ccc(N)c2)c2,-2.7,17,45.0,9.479,-0.003703275046,-0.0011269733779999,-0.037137368452,0,8,238.20180180000003,3,2,14,12.0,0.0,203.17110455279,371.705,147.144631
A-4744,CC(=O)CC(=O)Nc1ccc2NC(=O)Nc2c1,-2.522680786,17,45.0,3.762,-0.003409510269,0.0074437143039999,-0.015986247249,0,7,222.1364193,3,3,24,14.0,0.001,78.04192852029846,430.119,133.260179
C-2334,CC(=O)NC1=CC=C(C=C1)[S](=O)(=O)NC2=NC=CS2,-3.43,19,51.0,3.574,-0.007117011299,0.008337297332,-0.017587398576,0,14,286.2659941,3,3,14,11.0,-0.001,224.5806572644317,435.098,170.903766
C-566,NC1=NC(=C(C=C1)N=NC2=CC=CC=C2)N,-4.24,16,42.0,5.287000000000001,-1.1350912e-05,-0.010547099784,-0.020929388248,0,3,202.1516109,5,0,15,15.0,0.0,180.7274218461233,393.383,131.552972
I-65,c1ccc(cc1)\N=N\c1c(nc(cc1)N)N,-4.19,16,42.0,2.406,-9.372272e-06,-0.00974829202,-0.0233875265909999,0,1,202.1516109,5,0,18,13.0,0.001,138.10495341496122,403.134,132.249381
F-33,CC1=CC2=CC=CC(O)=C2N=C1C,-3.32,13,33.0,3.406,-0.002571909669,0.001235736147,-0.0167735799059999,0,3,162.124203,1,1,8,10.0,0.0,153.68530909853774,289.534,109.182755
B-3022,O=C1CCc2cccc3CCN1c23,-1.6365,13,33.0,6.2010000000000005,-0.001938838646,0.0017120042079999,-0.0107701371359999,0,3,162.124203,1,1,9,9.0,0.0,138.60591896684605,280.157,108.562629
B-3149,CC(=O)NC(=O)COC(=O)c1ccccc1,-2.4003,16,42.0,7.377999999999999,-0.002857515911,0.006097271617,-0.018014777714,0,9,210.1224178,1,4,15,11.0,0.0,179.6979897726692,356.412,123.579325
C-1281,CC(=O)OC1=CC=CC=C1C(=O)OCC(N)=O,-1.79,17,45.0,7.415,-0.001374667456,0.003210769433,-0.013925005924,0,11,226.1218227,1,5,14,11.0,0.0,193.1631026406972,363.809,129.213618
F-687,COC1=CC=C(S(=O)(=O)C2=CSC(S(N)(=O)=O)=C2)C=C1,-4.22,18,54.0,11.318,-0.015616967043,0.018184782148,-0.046490164567,0,13,322.3161849,0,5,20,19.0,0.0,255.29159994566947,456.815,191.973305
B-3525,COC(=O)C1(CC1)[S](=O)(=O)c2ccc(cc2)[N+]([O-])=O,-3.3797,19,51.0,5.742999999999999,-0.0107927695359999,0.021538740084,-0.035547557156,0,12,274.186015,1,6,16,15.0,0.0,219.1153847349204,402.3730000000001,153.377167
C-777,COC(=O)C1CC1[S](=O)(=O)C2=CC=C(C=C2)[N+]([O-])=O,-3.38,19,51.0,3.212,-0.01076574693,0.018115298441,-0.034239550677,0,14,274.186015,1,6,17,13.0,0.0,208.86158559694047,399.737,156.64899
F-686,COC1=CC=C(S(=O)(=O)C2=COC(S(N)(=O)=O)=C2)C=C1,-3.02,19,54.0,11.874,-0.01775564276,0.019003331048,-0.060151672748,0,14,306.2508024,0,6,14,14.0,0.0,230.80709185813552,422.585,177.113501
B-4459,OCC(NC(=O)C(Cl)Cl)C(O)c1ccc(cc1)[N+]([O-])=O,-2.1114,20,54.0,4.212,-0.0063469225769999,0.023131726049,-0.01610425319,0,16,311.0344011,2,5,15,15.0,0.0,230.97036309284215,423.715,163.538248
B-1756,CCCOC(=O)COc1ccc(Cl)cc1Cl,-4.2502,15,42.0,6.5,-0.000753664693,0.004873770746,-0.005885053307,0,10,251.0221848,0,3,12,13.0,0.0,202.85492183458192,399.124,144.685053
B-372,CC(C)OC(=O)COc1ccc(Cl)cc1Cl,-3.848,15,42.0,10.056,-0.000492574141,0.0070119861289999,-0.007773820605,0,10,251.0221848,0,3,10,12.0,-0.001,214.50230193686355,379.329,141.34604
F-1125,CN1CCN(CC2=CN=C(Cl)C=C2)C1=NC#N,-2.13,16,45.0,10.969,-1.0530388e-05,-0.00677403932,-0.0276163064589999,0,8,237.6045485,5,0,14,10.0,0.001,211.2033637567264,400.481,149.800539
B-270,CN1C(c2ccc(Cl)cc2)[S](=O)(=O)CCC1=O,-2.0394,17,45.0,7.049,-0.005235960429,0.0109522515959999,-0.0446333874419999,0,10,261.64073790000003,1,3,8,10.0,0.0,202.21646075410163,367.532,153.12220200000002
C-2325,CCC(CC1=C(I)C(=C(I)C=C1I)N)C(O)=O,-4.58,15,45.0,6.296,-0.000832998217,-0.004789318121,-0.017118803551,0,12,558.8370236000001,0,2,15,8.0,0.001,261.1056846275057,486.658,215.567469
F-20,CC1=NC2=C(C=CC=C2)N=C(C)C1,-1.37,13,33.0,0.158,-7.54938e-07,-0.005025079768,-0.005131689471,0,0,160.1315013,2,0,13,10.0,0.0,160.12546740793357,288.32,111.943826
F-53,CC1(C)N=C(C2=CC=CC=C2)NC1=O,-0.85,14,36.0,2.707,-0.000646842758,0.001244987027,-0.010118222659,0,2,176.1309062,2,1,13,14.0,0.0,172.42058576937507,352.916,117.911493
B-3374,CCCc1ncnc2c(O)cccc12,-2.9206,14,36.0,2.267,-0.002221381926,-0.000351553558,-0.018787975769,0,5,176.1309062,2,1,9,11.0,0.0,156.69515600035135,322.60400000000004,116.961255
A-320,Cc1ccc(cc1)N2N=C(C)CC2=O,-2.365667988,14,36.0,3.402,-0.0001109434089999,-0.002469054818,-0.008665524808,0,4,176.1309062,2,1,9,9.0,0.0,163.11100291984766,300.509,115.408578
B-4469,CN1N(C(=O)C=C1C)c2ccccc2,-0.5642,14,36.0,7.188,-0.000191600896,-0.002434362412,-0.00999013352,0,4,176.1309062,2,1,10,8.0,-0.001,166.40404423840695,335.92800000000005,119.182486
F-1142,CCC1(C2=CC=CC=C2)NC(=O)NC1=O,-2.64,15,39.0,13.666,-0.004592344617,0.006960413306,-0.029667040038,0,4,192.1303112,2,2,15,13.0,0.0,174.40994023718906,317.488,119.70001
F-1146,NC(CC1=CNC2=C1C=CC=C2)C(=O)O,-1.77,15,39.0,5.14,-0.001048013352,0.002128225735,-0.0044882194329999,0,3,192.1303112,2,2,16,13.0,0.0,170.4565557132743,342.777,121.455775
B-2177,O=C1CCC(N1)C(=O)Nc2ccccc2,-1.3278,15,39.0,6.922000000000001,-0.0015868231409999,0.002610139687,-0.008217845102,0,5,192.1303112,2,2,10,10.0,0.0,165.7585279301294,324.289,118.311742
E-878,c1ccc2C(O)N3CCC(O)C3=Nc2c1,-2.07,15,39.0,4.088,-0.0029429323359999,0.006084919105,-0.011438294469,0,5,192.1303112,2,2,10,11.0,0.0,156.27924264213507,312.834,120.857144
C-2100,CC(N(O)C(N)=O)C1=CC2=C(S1)C=CC=C2,-3.37,15,42.0,5.768,-0.000111250305,0.000674498336,-0.005159269978,0,7,224.1950986,2,2,10,10.0,0.0,193.29897801361813,351.624,140.85321100000002
D-1339,NC(Cc1c[nH]c2ccc(O)cc12)C(O)=O,-1.3430000000000002,16,42.0,3.715,-0.002155398369,0.0042203194059999,-0.0127048078719999,0,5,208.1297161,2,3,17,13.0,0.0,163.86488669961315,358.84,125.9546
B-3409,NC(=O)CNC(=O)COC(=O)c1ccccc1,-1.4983,17,45.0,22.062,-0.00300385679,0.010375153216,-0.049793324397,0,8,224.129121,2,4,16,10.0,0.0,194.8268593087677,389.742,128.948449
A-69,C1CN(CCO1)Sc2sc3ccccc3n2,-3.810962795,16,42.0,1.306,-8.7422299e-05,0.001275164315,-0.001512061741,0,6,240.2604811,2,1,8,10.0,0.0,193.0299687275869,354.5,156.54164