Name,SMILES,Solubility,AtomNum,DegFreedom,Dipole,Ghb,Gsasa,Gsolv,HNum,LP,MolWt,NNum,ONum,PiCenters,PiDeloc,Quadrupole,Volume,SASA,Polarizabilty
A-2891,O=C1CCO1,0.7104893859999999,5,9.0,0.542,-0.000784516324,0.008961073466,0.005402122371,0,3,68.0310175,0,2,7,6.0,-0.001,58.86315083707606,180.933,36.628563
B-757,CC(=O)C(O)=O,1.0552,6,12.0,5.812,-0.003115513655,0.011769868632,-0.0126286869289999,0,2,84.0304225,0,3,10,6.0,0.0,74.6334823588548,203.962,42.263406
A-2823,O=C1OCCO1,0.946191052,6,12.0,2.9730000000000003,-0.002342038646,0.009858562949,-3.3519615e-05,0,4,84.0304225,0,3,7,4.0,0.001,63.09961327686654,184.199,41.549484
B-819,OC(=O)CC(O)=O,0.8652,7,15.0,0.0559999999999999,-0.002916185205,0.019590484987,0.008642892406,0,6,100.02982740000002,0,4,8,7.0,0.0,73.83109086795815,205.048,43.922136
B-3987,BrCC=C,-1.4995,4,6.0,4.059,-1.367821e-05,-0.002486262459,-0.0045361285629999,0,4,115.9357355,0,0,4,2.0,0.0,66.06325797377822,200.313,50.249218
D-1450,ClCC(Br)CBr,-2.374,6,12.0,3.981,-7.8707534e-05,-0.0011034801979999,-0.001996509025,0,9,231.2922008,0,0,5,3.0,-0.001,108.70854068842716,272.504,85.393485
B-512,ClCC=C,-1.3562,4,6.0,5.533,-1.113555e-06,-0.000611691713,-0.003836475337,0,4,71.4851453,0,0,4,2.0,0.001,63.43242796166126,190.814,43.602464000000005
B-4645,NC(=O)C(Cl)CCl,-0.5138,7,15.0,2.846,-0.001004347763,0.006541120202,0.001649558083,0,8,136.944191,1,1,8,4.0,0.0,103.58221181695284,253.297,68.918348
B-1285,CCC(Cl)(Cl)[N+]([O-])=O,-1.4996,8,18.0,2.7960000000000003,-0.002335250706,0.009550803149,-0.002212886936,0,11,152.9435959,1,2,7,3.0,0.0,107.49472644325036,257.116,73.47203499999999
B-1299,CC(Cl)C(Cl)Cl,-1.8898,6,12.0,1.958,-3.201870000000001e-07,0.001889572581,0.001088911287,0,10,142.3910204,0,0,2,2.0,0.0,100.83138150069615,244.648,69.893691
B-2338,CCC(Cl)(Cl)Cl,-1.8898,6,12.0,0.743,-7.1118e-08,0.0013286965109999,0.000632635433,0,10,142.3910204,0,0,3,3.0,-0.001,100.6828314836261,246.953,71.391426
B-390,ClCC(Cl)CCl,-1.9255,6,12.0,1.44,-5.4869000000000006e-08,0.0018002730929999,-0.001488477674,0,10,142.3910204,0,0,2,3.0,0.0,99.4764818357072,245.834,72.351673
B-197,CC(O)C(Cl)(Cl)Cl,-0.7574,7,15.0,2.322,-0.000260757029,0.005040435478,0.0017109696069999,0,12,158.3904254,0,1,2,1.0,0.001,108.9351948048056,255.749,74.930624
B-248,CC(=O)CCl,-0.012,5,9.0,3.715,-0.001398947333,0.0059166978399999,-0.000709965797,0,6,87.4845502,0,1,3,2.0,0.0,72.14102331557676,197.68400000000003,46.606213
A-2831,ClCC1CO1,-0.147373679,5,9.0,3.269,-0.000974457547,0.00592494767,0.001847459708,0,6,87.4845502,0,1,4,3.0,0.0,67.59896697160286,203.99400000000003,47.224462
B-1300,CC(Cl)C(O)=O,0.9645,6,12.0,2.242,-0.001121746307,0.008763998972,0.005203460662,0,6,103.4839551,0,2,9,4.0,0.0,84.63517521017816,228.05900000000003,53.555664
A-3612,COC(=O)CCl,-0.372767961,6,12.0,4.227,-0.00090263426,0.006046851943,0.0003302782239999,0,6,103.4839551,0,2,9,5.0,-0.001,85.20133965692027,244.161,53.258480000000006
B-930,CC(O)C(F)(F)F,0.3094,7,15.0,0.316,-0.000403185146,0.0102981779169999,0.005001614992,0,12,109.0268221,0,1,2,1.0,0.0,74.06607125320247,204.68,40.885642
B-817,OC(=O)CCI,-0.43,6,12.0,7.082999999999999,-0.003807022732,0.007002142469,-0.013808598086,0,7,194.9354894,0,2,7,4.0,0.001,87.45627601626444,241.389,69.788843
B-3941,CCC#N,0.2718,4,6.0,1.721,-2.385305e-06,-0.004410020009,-0.005081133288,0,2,50.0389109,1,0,6,4.0,0.0,55.675345790350825,172.968,34.660313
B-3179,NC(=O)C(=NO)C(N)=O,-0.0384,9,21.0,1.459,-0.002800691523,0.015173473463,0.003754639759,0,5,126.0505321,3,3,16,9.0,0.0,107.89035899369968,253.661,62.447357
A-4607,[O-][N+](=O)OCC(CO[N+]([O-])=O)O[N+]([O-])=O,-2.152068465,15,39.0,4.689,-0.00548932957,0.030433701712,0.002352416299,0,19,222.0469616,3,9,15,13.0,0.0,156.84182861123233,344.965,93.18452
B-3355,COc1nsc(N)n1,-1.2427,8,18.0,7.403,-6.4714406e-05,-0.002401410579,-0.022090283085,0,6,126.1165097,3,1,9,7.0,0.001,104.31407520926308,258.436,73.360765
B-1454,NC1=NC(=O)N=C(N)N1,-3.2291,9,21.0,2.055,-0.000995471308,-0.002358438711,-0.006854600509,0,7,122.0651287,5,1,9,8.0,0.0,97.22332325868815,233.273,64.76939899999999
B-4035,NC(=O)C=C,0.9544,5,9.0,0.7659999999999999,-0.000816012357,0.003500894184,0.000173828398,0,2,66.03831579999999,1,1,9,5.0,0.001,68.94510397190186,190.101,40.097911
A-4514,CC(O)C#N,1.148258691,5,9.0,1.856,-0.000538693432,0.00210626717,-0.002159289862,0,2,66.03831579999999,1,1,6,5.0,0.0,69.95190400656435,187.315,38.586583000000005
B-582,OCCC#N,1.1483,5,9.0,1.857,-0.000538410803,0.002106315227,-0.002160400049,0,2,66.03831579999999,1,1,6,6.0,0.001,61.41016398647178,187.311,38.586613
B-2721,NC(=S)SCC(O)=O,-0.7482,8,18.0,0.589,-0.000951914736,0.012184967359,0.009478486862,0,6,146.1672956,1,2,15,9.0,0.001,124.3035167384486,279.567,83.802648
B-1888,OC(=O)CNC=O,0.2672,7,15.0,3.753,-0.003037732047,0.014734938277,-0.00028898972,0,5,98.0371257,1,3,10,5.0,0.0,76.3821135837888,215.046,48.087682
G-1002,CC=C,-1.08,3,3.0,0.8079999999999999,-2.6610600000000004e-07,-0.002245590565,-0.0019992708549999,0,2,36.03220770000001,0,0,2,3.0,0.001,47.39428938056633,156.588,29.220866
B-239,CC(Br)CBr,-2.1498,5,9.0,1.574,-2.3851615e-05,-0.00263797758,-0.003437623442,0,7,195.83926330000003,0,0,1,1.0,0.001,87.70978280686087,235.80900000000003,70.10854599999999
B-578,BrCCCBr,-2.0747,5,9.0,2.0380000000000003,-1.77522e-05,-0.0027254687199999,-0.002870433608,0,6,195.83926330000003,0,0,3,2.0,0.0,85.61349516267767,242.693,70.714209
B-389,OCC(Br)CBr,-0.6222,6,12.0,4.183,-0.0013398072409999,0.003040400219,-0.004988049974,0,8,211.8386682,0,1,5,2.0,0.0,97.21813973358348,256.053,75.248572
B-1956,CC(Br)CCl,-1.8476,5,9.0,2.714,-1.7259327e-05,-0.0008233298789999,-0.0016372292519999,0,7,151.3886731,0,0,2,2.0,0.0,85.05843536948512,226.742,63.443988
A-1532,ClCCCBr,-1.940151412,5,9.0,4.7,-4.4804542e-05,-0.00085069703,-0.002234675208,0,7,151.3886731,0,0,2,1.0,0.0,83.11397276903506,233.26,64.024828
A-3986,OCC(Br)(CO)[N+]([O-])=O,0.127130857,9,21.0,4.603,-0.003230758131,0.017487127448,-0.005818892398,0,10,193.9400584,1,4,10,7.0,0.0,112.52479477049047,269.547,76.841792
B-250,CCC(Cl)Cl,-1.6217,5,9.0,4.668,-1.098476e-06,0.000552730683,-0.002796454018,0,7,106.9380829,0,0,2,2.0,0.0,81.51068165230383,221.45,58.425972
A-1209,CC(Cl)CCl,-1.621664713,5,9.0,2.964,-8.004749999999999e-07,0.0010135125909999,0.0002430177149999,0,7,106.9380829,0,0,1,1.0,0.0,82.44884672658256,217.65,56.796763
B-3855,ClCCCCl,-1.6137,5,9.0,2.892,-7.8941e-08,0.00092730734,0.000521442919,0,6,106.9380829,0,0,3,2.0,0.0,80.51923889233541,224.266,57.447292
D-1451,OC(CCl)CCl,-0.115,6,12.0,5.482,-0.000515454984,0.0048208352049999,-0.004889972468,0,9,122.9374878,0,1,2,2.0,-0.001,89.17947871407766,233.302,61.655331
E-749,ClCCS(=O)(=O)CCl,-1.5,8,18.0,5.877999999999999,-0.007590904128,0.011807754989,-0.013680544896,0,10,171.0016801,0,2,8,6.0,0.0,121.44420421006924,280.439,87.664728
B-1305,CCC(Cl)[N+]([O-])=O,-1.1887,7,15.0,4.835,-0.002934283962,0.009257424108,-0.0065957299049999,0,7,117.4906583,1,2,8,5.0,-0.001,88.55951580830592,231.655,60.407880000000006
B-2830,C[C@@H](CCl)[N+]([O-])=O,-1.1887,7,15.0,5.624,-0.0042634569439999,0.01141590896,-0.007879240348,0,8,117.4906583,1,2,7,4.0,0.0,89.3765352704868,234.126,58.87680699999999
B-952,COCC(F)F,-0.2836,6,12.0,2.043,-0.000300520633,0.003926831206,-0.004700712455,0,7,90.0284189,0,1,6,3.0,0.0,68.05989006162362,201.088,39.655467
B-1099,OC(CI)CI,-1.3971,6,12.0,4.281000000000001,-0.000716164737,-0.003071616582,-0.009273295478,0,9,305.8405564,0,1,2,1.0,0.0,111.22722218322492,278.087,97.796778
B-2082,CN(C=C)N=O,-0.4579,6,12.0,1.617,-0.001233083098,0.002585725542,-0.0056580759389999,0,4,80.045019,2,1,5,5.0,0.0,82.09179129808601,212.208,47.242344
A-3416,O=C1NCCN1,0.840273374,6,12.0,2.134,-0.001090894767,0.0019152491949999,-0.00196213728,0,2,80.045019,2,1,10,6.0,0.0,66.80913399475023,187.093,45.314305
E-740,O=C(NC(=O)C)N,-0.9,7,15.0,0.7140000000000001,-0.001165923104,0.006758708132,0.002571333842,0,4,96.044424,2,2,11,5.0,0.0,87.24363796394087,220.852,50.487018
B-1721,C\C(NO)=C/N=O,-0.3462,7,15.0,0.351,-0.003169596945,0.010258413898,-0.004450650001,0,4,96.044424,2,2,8,5.0,0.0,86.98560449833967,225.462,51.060456
C-1548,CC(\C=N\O)=N/O,-0.35,7,15.0,1.907,-0.00403110484,0.010798398023,-0.008449801261,0,4,96.044424,2,2,8,6.0,0.0,80.55541353346389,220.197,50.95853
B-2303,CN(N=O)C(C)=O,-0.7684,7,15.0,2.755,-0.000840883083,0.00477978549,-0.0003310212189999,0,4,96.044424,2,2,8,8.0,0.0,89.75815211548431,216.918,52.233624
C-1601,NC1CONC1=O,-0.01,7,15.0,6.151,-0.002073995467,0.0036929045899999,-0.018774410121,0,3,96.044424,2,2,11,5.0,-0.001,82.63428956531891,230.677,50.080058
B-2385,CN(CC(O)=O)N=O,0.9278,8,18.0,0.432,-0.002722360757,0.013839588107,0.001578495085,0,7,112.0438289,2,3,9,8.0,0.0,90.23023693395396,230.457,53.2168
B-955,NC(=O)NCC(O)=O,-0.5809,8,18.0,1.726,-0.0015368548629999,0.007303902897,-0.000748709353,0,6,112.0438289,2,3,12,6.0,0.0,92.02804180213371,252.912,56.553876
B-3311,CC(O)C([N+]([O-])=O)[N+]([O-])=O,0.0789,10,24.0,4.2,-0.005720842363,0.020061427664,-0.0117510023809999,0,10,144.0426387,2,5,13,7.0,0.0,103.88215001939038,247.772,65.959241
B-4041,OC(CO[N+]([O-])=O)CO[N+]([O-])=O,-0.366,12,30.0,3.673,-0.004713173064,0.026181502466,-0.0067160852489999,0,10,176.0414486,2,7,17,12.0,0.0,130.3978175786594,292.213,75.915417
B-3981,S=C1NCCN1,-0.7083,6,12.0,1.43,-4.123304e-06,-0.000534028217,-0.001008029154,0,4,96.1104015,2,0,6,4.0,0.0,79.5136999993718,209.646,57.93887900000001
C-2155,C[S](=O)(=O)NC1=NN=C(S1)[S](N)(=O)=O,-1.68,14,36.0,17.19,-0.013346918917,0.012684262932,-0.051187334351,0,13,252.25100240000003,4,4,17,12.0,0.0,191.52759107913312,367.348,135.340578
A-3905,Nc1nc(N)nc(N)n1,-1.559215049,9,21.0,0.003,-6.353611e-06,-0.010789597835,-0.011775546369,0,3,120.072427,6,0,12,8.0,0.0,99.09020864801168,235.081,66.489641
B-714,[O-][N+](=O)N1CN(CN(C1)[N+]([O-])=O)[N+]([O-])=O,-3.5706,15,39.0,0.011,-0.007063053331,0.028217378786,-0.001857574132,0,15,216.0688565,6,6,15,12.0,0.0,146.6185323641484,318.075,99.911557
B-518,OCC=C,1.236,4,6.0,2.494,-0.000248885409,0.004241827189,0.0016646425849999,0,2,52.0316126,0,1,3,3.0,0.0,52.59181478173984,170.408,33.306767
E-290,CCC=O,0.58,4,6.0,2.494,-0.000248877257,0.004241800158,0.001664762766,0,2,52.0316126,0,1,3,2.0,0.0,52.58802054515442,170.398,33.306807
B-1025,C1COC1,1.236,4,6.0,1.4340000000000002,-0.00037417906,0.002486748769,0.001158987671,0,3,52.0316126,0,1,2,3.0,0.0,48.89923027747969,159.042,31.328054
B-131,CC(C)=O,1.236,4,6.0,2.491,-0.000249232205,0.004241846516,0.001665883499,0,2,52.0316126,0,1,3,2.0,0.0,61.51874925447939,170.421,33.306515000000005
A-5138,CC1CO1,0.832570488,4,6.0,2.806,-1.3589404e-05,0.002272342304,0.001484884325,0,3,52.0316126,0,1,4,3.0,0.0,48.10365244763053,167.395,33.000192
A-3687,C[C@H]1CO1,0.838033384,4,6.0,2.806,-1.3589321e-05,0.002272341818,0.0014848841,0,3,52.0316126,0,1,4,2.0,0.0,48.10467930376976,167.395,33.000192
A-3752,C[C@@H]1CO1,0.838033384,4,6.0,2.806,-1.3588754e-05,0.002272337067,0.00148486927,0,3,52.0316126,0,1,4,3.0,-0.001,48.103915826156616,167.395,33.000193
A-4286,COC=C,-0.531030497,4,6.0,2.9960000000000004,-8.799508099999999e-05,-0.001815683659,-0.007742481831,0,2,52.0316126,0,1,3,3.0,0.0,55.42074192641104,175.334,34.793868
A-4545,CCC(O)=O,1.130304889,5,9.0,5.377999999999999,-0.000481641422,0.005629816552,-0.006013787693,0,2,68.0310175,0,2,9,5.0,0.0,65.71953717460879,190.885,38.746109
A-1863,CCOC=O,0.151494188,5,9.0,5.372999999999999,-0.000485723758,0.005617624841,-0.006050117616,0,2,68.0310175,0,2,9,4.0,0.0,61.51044362397622,190.871,38.747224
G-811,COC(=O)C,0.46,5,9.0,3.0980000000000003,-0.001976923092,0.004743320779,-0.0093550139729999,0,2,68.0310175,0,2,6,6.0,0.0,67.54314838037595,188.885,38.433088
B-672,CC(=O)CO,1.1303,5,9.0,0.568,-0.000771799099,0.00892636086,0.005527036547,0,3,68.0310175,0,2,7,6.0,0.0,61.35892505096682,180.815,36.634389
B-1179,OCC1CO1,1.1303,5,9.0,0.564,-0.000771144413,0.008927437607,0.005524570788,0,3,68.0310175,0,2,7,4.0,0.0,53.4530509230072,180.807,36.634333000000005
A-5211,OC(=O)CCS,0.754917543,6,12.0,3.574,-0.002355906222,0.012966525194,0.0030633265139999,0,6,100.095805,0,2,6,4.0,0.0,78.37877067800873,218.662,56.164676
B-2214,OC(=O)C(S)CS,-0.2374,7,15.0,0.1169999999999999,-0.000919385792,0.012618787967,0.010367874001,0,6,132.1605924,0,2,12,8.0,0.001,105.2749330155224,263.291,76.950962
B-5,CC(O)C(O)=O,1.0454,6,12.0,1.249,-0.002196894557,0.015401508329,0.007111096742,0,5,84.0304225,0,3,8,4.0,0.0,73.61372699760581,194.33900000000003,41.281506
A-4084,C1OCOCO1,0.371717126,6,12.0,0.281,-0.0001708444719999,0.005661358208,0.00539808742,0,5,84.0304225,0,3,6,4.0,0.0,66.23598117779163,182.765,42.029227
A-1720,COC(=O)OC,0.185260351,6,12.0,3.942,-0.004832168153,0.004378298469,-0.02375587421,0,4,84.0304225,0,3,7,4.0,0.0,71.37367510760279,211.438,43.9473
B-1391,COCC(O)=O,1.0454,6,12.0,3.125,-0.002784547209,0.008964074119,-0.007518853257,0,4,84.0304225,0,3,9,5.0,0.0,69.32904472224726,200.712,42.49484
D-1341,OCC(O)C=O,-0.489,6,12.0,5.257000000000001,-0.004331990506,0.016327120225,-0.013048986038,0,5,84.0304225,0,3,6,5.0,0.001,65.60377894180067,197.967,41.72207
A-2807,OCC(=O)CO,1.013864214,6,12.0,5.291,-0.004357135387,0.016328379992,-0.0132486328679999,0,5,84.0304225,0,3,6,4.0,0.0,65.60386665301567,198.03,41.725131
A-4551,O=[S]1(=O)CCCO1,-0.086875694,7,15.0,15.121,-0.014214551661,0.012639776089,-0.0975902703659999,0,7,116.0952099,0,3,8,6.0,0.001,92.57959800880693,241.671,64.39957
A-1288,CCCBr,-1.710756249,4,6.0,4.059,-1.3723024e-05,-0.002486373494,-0.004538454522,0,4,115.9357355,0,0,4,2.0,0.0,66.06603038692398,200.32,50.249403
A-3921,CC(C)Br,-1.598518701,4,6.0,2.316,-5.084720000000001e-07,-0.0023934977259999,-0.003026684764,0,5,115.9357355,0,0,1,2.0,-0.001,68.50590946712127,193.355,48.686156
B-1407,OCCCBr,0.0093,5,9.0,0.947,-0.0007573931489999,0.004063737811,0.001280647985,0,6,131.93514040000002,0,1,4,3.0,0.0,71.82522895576042,213.452,53.851312
A-1203,CCCCl,-1.45340682,4,6.0,5.527,-1.1098690000000002e-06,-0.000611748335,-0.003808578462,0,4,71.4851453,0,0,4,2.0,0.0,63.44408169663279,190.843,43.600754
B-3834,CC(C)Cl,-1.4037,4,6.0,3.577,-5.92151e-07,-0.000546212627,-0.001367232748,0,5,71.4851453,0,0,1,2.0,0.0,65.8739056253125,183.91,42.013951
B-1410,COCCCl,-0.0725,5,9.0,1.002,-4.776723200000001e-05,-0.000142382026,-0.00188222588,0,4,87.4845502,0,1,8,6.0,0.0,72.46401366775065,209.919,48.523857
B-1409,OCCCCl,0.4223,5,9.0,3.2460000000000004,-0.000969954102,0.005923101624,0.001878369487,0,6,87.4845502,0,1,4,3.0,0.0,69.15583392759106,203.978,47.22484
B-392,OCC(O)CCl,0.9565,6,12.0,3.66,-0.000408929679,0.011812220227,0.0001395006149999,0,6,103.4839551,0,2,6,6.0,0.001,88.06160673847558,221.316,51.427327000000005
E-110,CCCI,-2.29,4,6.0,4.407,-6.105206500000001e-05,-0.004706406212,-0.006954807629,0,4,162.9366796,0,0,4,2.0,0.0,74.58884824405794,214.453,61.53552
B-180,CC(C)I,-2.0843,4,6.0,2.469,-1.0652396e-05,-0.004566232905,-0.005374836145,0,5,162.9366796,0,0,1,1.0,0.0,76.95544231783445,207.143,60.059246
B-4319,CC[S](=O)(=O)CI,-0.9714,7,15.0,3.549,-0.007805462386,0.006226018384,-0.026322322478,0,8,227.0002768,0,2,5,6.0,0.0,117.58093425740364,266.232,91.972282
B-515,NCC=C,1.2434,4,6.0,1.719,-2.38241e-06,-0.004409978763,-0.00507868204,0,2,50.0389109,1,0,6,5.0,0.0,55.67898012404649,172.976,34.660411
B-183,CC1CN1,1.2434,4,6.0,0.8170000000000001,-5.427980000000001e-07,-0.00372203289,-0.003667683385,0,3,50.0389109,1,0,4,2.0,0.0,49.68351137520722,169.0,34.777577
A-4532,NC1CC1,1.2433943159999998,4,6.0,1.72,-2.383855e-06,-0.00441009249,-0.005080096341,0,2,50.0389109,1,0,6,3.0,0.0,53.30461103730378,172.977,34.660354
B-1493,CCN(N=O)C(N)=O,-0.9547,8,18.0,10.307,-0.0008399260039999,0.001288472481,-0.036914254742,0,4,110.0511272,3,2,15,7.0,0.0,96.0713374051866,262.29200000000003,59.176929
E-616,NC(=N)NCC(=O)O,-1.51,8,18.0,1.5719999999999998,-0.0007993838069999,0.0012208925449999,-0.004050818088,0,5,110.0511272,3,2,13,6.0,0.0,95.81231123102803,255.58,58.59201899999999
H-419,CCC(N)=O,-4.23,5,9.0,0.78,-0.000818016667,0.0035063098,0.000164989152,0,2,66.03831579999999,1,1,9,5.0,0.0,68.96316657322905,190.117,40.098305
A-4527,CNC(C)=O,1.13611233,5,9.0,0.7,-0.000447418972,0.001960155997,-0.001485358259,0,4,66.03831579999999,1,1,5,5.0,0.0,64.83215676020075,187.583,39.674171
A-3008,CN(C)C=O,1.13611233,5,9.0,0.759,-0.000817084746,0.003502927406,0.0001692932059999,0,2,66.03831579999999,1,1,9,5.0,0.0,71.84907317719714,190.107,40.097915
A-2962,CC(N)C(O)=O,0.267898616,6,12.0,0.551,-0.001636566036,0.006816998107,-0.000722969358,0,5,82.0377208,1,2,7,5.0,0.0,78.0193529324021,197.773,42.825806
B-1789,CC(O)C(N)=O,0.9435,6,12.0,1.822,-0.002025831555,0.010144753518,0.0005257611329999,0,2,82.0377208,1,2,12,6.0,0.0,77.9450767853753,204.516,43.857768
E-602,CCCN(=O)=O,-0.8,6,12.0,1.372,-0.003754673629,0.009764276813,-0.006879745757,0,6,82.0377208,1,2,6,4.0,0.0,70.65102975961605,206.605,45.336222
B-4034,CCOC(N)=O,0.7314,6,12.0,2.775,-0.000805305987,0.003104983551,-0.002904031808,0,5,82.0377208,1,2,7,5.0,0.0,72.06701488487884,202.193,44.700615
D-1401,CC(C)[N+]([O-])=O,-0.615,6,12.0,2.639,-0.004032335089,0.009884282159,-0.007472506027,0,6,82.0377208,1,2,6,5.0,0.0,73.00151622491364,200.453,43.880586
B-542,CNCC(O)=O,0.5273,6,12.0,0.88,-0.001993331902,0.008488130616,-0.0007055388379999,0,5,82.0377208,1,2,7,3.0,0.0,70.61094613845282,201.32,44.246177
A-3462,NCCC(O)=O,0.786548045,6,12.0,0.54,-0.001637437024,0.006817883057,-0.0007289901219999,0,5,82.0377208,1,2,7,4.0,0.0,69.52337626985758,197.779,42.825514
B-34,NC(CS)C(O)=O,0.3597,7,15.0,4.223,-0.000951488833,0.006585801254,-0.0008261078789999,0,5,114.1025082,1,2,13,8.0,-0.001,94.44995977438414,262.193,63.670665
B-1406,CCCO[N+]([O-])=O,-1.5044,7,15.0,3.445,-0.001559961988,0.009106588927,0.000680688576,0,7,98.0371257,1,3,7,6.0,0.0,84.69077507344969,246.105,50.616362
B-1711,CC(C)O[N+]([O-])=O,-1.4593,7,15.0,4.521,-0.001569938378,0.011364856944,-0.003565489437,0,5,98.0371257,1,3,9,6.0,0.0,83.9932289270448,216.197,49.408047
B-1210,NCC(O)C(O)=O,-0.8229,7,15.0,1.633,-0.001409878708,0.00834192879,0.002280604836,0,5,98.0371257,1,3,13,7.0,-0.001,82.97509177467717,242.315,48.689538
C-33,NC(CO)C(O)=O,-0.02,7,15.0,1.886,-0.001180844967,0.008927879312,0.0031861211119999,0,5,98.0371257,1,3,13,7.0,0.0,82.03407191273598,240.334,48.69976
B-2272,N[C@@H](CO)C(O)=O,-0.3861,7,15.0,1.635,-0.001409906337,0.008337612005,0.002274703722,0,5,98.0371257,1,3,13,7.0,0.0,74.53608510560376,242.409,48.689589
A-3776,CN(C)C([S-])=S,0.4168921920000001,6,12.0,5.402,-0.001348563955,0.003927000812,-0.080280301797,0,6,114.1684857,1,0,4,3.0,0.0,98.9435226631204,239.486,76.718648
B-2197,OC(=O)CC[P](O)(O)=O,0.5007,9,21.0,20.674,-0.0059254180909999,0.022130092683,-0.061394701505,0,7,147.0029943,0,5,15,9.0,-0.001,106.1363057241274,270.978,75.221124
H-409,CCC,-2.84,3,3.0,0.81,-2.66197e-07,-0.002245471294,-0.001999202662,0,2,36.03220770000001,0,0,2,2.0,-0.001,47.3910821076901,156.58,29.221178
B-4069,CCN(C)N=O,0.5321,6,12.0,1.617,-0.001232943698,0.002585912405,-0.00565663321,0,4,80.045019,2,1,5,4.0,0.0,82.09077529055179,212.207,47.242446
A-3220,CNC(=O)NC,0.938636234,6,12.0,0.648,-0.001356552828,0.0027837346169999,-0.002802147592,0,4,80.045019,2,1,8,3.0,0.0,74.06563809542149,211.828,47.607541
A-4351,CN(C)C(N)=O,0.212431567,6,12.0,2.312,-9.9002e-06,-0.002702409432,-0.005020781501,0,4,80.045019,2,1,8,5.0,-0.001,82.0523909229118,208.933,46.729501
B-2461,CN[S]#CNCO,-0.0798,7,15.0,2.899,-0.001194151052,0.005543551167,-0.000358591088,0,4,112.1098064,2,1,10,4.0,0.0,93.40717171205542,247.151,67.07923100000001
B-1100,CNC(=S)NC,0.9823,6,12.0,0.583,-4.8110434e-05,0.000276851492,-0.0003946830619999,0,4,96.1104015,2,0,8,4.0,0.0,86.75876784414775,233.705,62.595886
B-2400,NC(=O)NCNC(N)=O,-0.6525,9,21.0,3.048,-0.002090668608,0.0031240030339999,-0.014869187954,0,6,124.0578304,4,2,12,6.0,0.0,99.24010670318545,255.263,63.742552
B-2035,NNC(=O)CC(=O)NN,-0.121,9,21.0,3.694,-0.002391603651,-0.000672149043,-0.016925733587,0,6,124.0578304,4,2,12,7.0,0.0,106.50753544007092,286.26,63.421232