Name,SMILES,Solubility,AtomNum,DegFreedom,Dipole,Ghb,Gsasa,Gsolv,HNum,LP,MolWt,NNum,ONum,PiCenters,PiDeloc,Quadrupole,Volume,SASA,Polarizabilty
A-4433,O=C(OCC1CO1)C2CC=CCC2C(=O)OCC3CO3,-1.34010886,20,54.0,5.132999999999999,-0.001537314463,0.013136490808,0.001298382351,0,8,264.1467321,0,6,27,17.0,0.0,218.50844344910223,454.777,154.51861100000002
C-1971,CC(=O)C1=CC=C(OC2OC(CO)C(O)C(O)C2O)C=C1,-1.17,21,57.0,7.891,-0.005744588214,0.024280469829,-0.028636833393,0,11,280.146137,0,7,15,15.0,0.0,227.0393233499287,435.429,155.03411599999998
D-1697,CC(=O)c1ccc(O[C@@H]2O[C@H](CO)[C@@H](O)[C@H](O)[C@H]2O)cc1,-1.1740000000000002,21,57.0,15.507,-0.005897343294,0.0219605291399999,-0.0421725734059999,0,12,280.146137,0,7,16,18.0,0.0,220.5388436810258,429.802,158.042827
F-656,CCCCCCCOC(=O)C1=CC(Br)=C(O)C=C1,-4.42,17,48.0,14.688,-0.003996050448,0.005505896942,-0.039113463368,0,9,296.05204510000004,0,3,11,11.0,0.001,216.14317203020192,458.668,162.05042
C-1261,OC(=O)CCCC1=CC=C(C=C1)N(CCCl)CCCl,-3.4,18,51.0,18.476,-0.003780311764,0.009053507253,-0.025778008651,0,10,285.0616908,1,2,17,10.0,-0.001,231.88834692357628,481.191,171.684085
F-655,CCCCCCCOC(=O)C1=CC(Cl)=C(O)C=C1,-4.23,17,48.0,13.053,-0.003914782848,0.007246372787,-0.034715141078,0,9,251.6014549,0,3,11,11.0,-0.001,213.59124144854405,450.774,155.490461
C-747,CC(C)(C)C(=O)OCC1OC(CC1O)N2C=C(I)C(=O)NC2=O,-3.36,22,63.0,7.028,-0.004664933296,0.0132491261789999,-0.015466033123,0,13,419.0646104,2,6,25,19.0,0.0,281.03593878386846,522.266,198.613871
C-787,CCCCC(=O)OCC1OC(CC1O)N2C=C(I)C(=O)NC2=O,-3.4,22,63.0,6.375,-0.004019036719,0.011619774051,-0.017614575082,0,12,419.0646104,2,6,29,16.0,-0.001,273.1529571192751,525.198,203.056896
F-657,CCCCCCCOC(=O)C1=CC(I)=C(O)C=C1,-4.56,17,48.0,13.829,-0.003954182837,0.003432590455,-0.039007014236,0,9,343.05298930000004,0,3,11,11.0,0.0,224.513061549766,470.449,173.50591
A-887,Cc1cc(cc(C)c1CC#N)C(C)(C)C,-4.701811829,15,39.0,3.354,-5.86737e-06,-0.006993165066,-0.0132006169989999,0,2,182.1570058,1,0,15,10.0,0.0,210.608119244518,353.024,130.971224
F-843,COC1=C2CCCC3CN(C(=N)N)CC(=C23)C=C1,-1.22,18,48.0,11.462,-4.5466957e-05,-0.008015642459,-0.026705185239,0,3,226.1698171,3,1,11,10.0,0.0,199.7627996539729,374.185,150.053774
F-842,CC1=CC=C2CN(C(N)=NO)CC3CCCC1=C23,-1.2,18,48.0,7.676,-2.0849811e-05,-0.005934053566,-0.022795591902,0,5,226.1698171,3,1,14,12.0,0.0,206.321881364372,362.043,148.377066
F-848,COC1=C2CCCC3CN(C(N)=NO)CC(=C23)C=C1,-1.78,19,51.0,17.496,-0.00011812757,-0.0060258925989999,-0.047775517344,0,4,242.1692221,3,2,16,16.0,0.0,212.4289995930592,381.664,155.82189
B-353,CN(C)CCN(Cc1sccc1)c2ccccn2,-2.6383,18,48.0,4.875,-0.000137310486,-0.0028493513939999,-0.014364539349,0,6,242.2351996,3,0,14,14.0,0.001,228.2215162099453,451.244,165.921997
C-1412,CCN(CC)C(=O)CCC(=O)OC[N]1N=CC2=C1N=CNC2=O,-0.99,23,63.0,5.837999999999999,-0.00518765699,0.01006528119,-0.0299201561109999,0,10,302.1814383,5,4,27,16.0,-0.001,250.72993902953215,420.82,179.289747
A-1879,CCOc1ccc2NC(C)(C)C=C(C)c2c1,-3.332762335,16,42.0,3.295,-3.5413235e-05,-0.003638738411,-0.014004221625,0,4,198.1564107,1,1,10,10.0,-0.001,198.30651750214216,360.531,135.892608
A-1800,Cc1cc(c(O)c(C)c1CC#N)C(C)(C)C,-4.257902463,16,42.0,4.592,-0.0015660498439999,-0.001817947951,-0.017986369398,0,5,198.1564107,1,1,15,15.0,0.001,211.8924373490631,364.686,134.95858
C-1901,CCCCCC(=O)OC1=CC=C(NC(C)=O)C=C1,-4.14,18,48.0,3.2430000000000003,-0.000551288331,0.002467281915,-0.007147356949,0,6,230.1552206,1,3,11,14.0,0.0,210.0705933700911,413.937,147.390823
C-1925,CCN(CC)C(=O)C(C)OC(=O)C1=CC=CC=C1,-2.28,18,48.0,8.586,-0.002853447478,0.005262132334,-0.016796268821,0,7,230.1552206,1,3,15,14.0,0.0,216.5535766656997,423.625,148.38058999999998
F-1201,CC(C)C1OC(O)C(CC2=CC=CC=C2)NC1=O,-2.28,18,48.0,12.164,-0.003548662123,0.0058445853469999,-0.023241299255,0,7,230.1552206,1,3,14,13.0,0.0,208.42355061879192,400.463,146.378896
E-942,COc2ccc(CC1NCC(O)C1OC(C)=O)cc2,-1.61,19,51.0,22.33,-0.002919967598,0.002796360325,-0.056363595793,0,8,246.1546255,1,4,17,12.0,0.0,210.7515550680548,422.651,152.049621
B-2620,COc1ccc(C[C@@H]2NC[C@@H](O)[C@@H]2OC(C)=O)cc1,-1.6075,19,51.0,22.261,-0.002913615085,0.002778546613,-0.056177827905,0,8,246.1546255,1,4,17,13.0,0.0,210.7376280389205,422.6830000000001,152.05269099999998
B-2008,CN(Cc1cc(Br)cc(Br)c1N)C2CCCCC2,-1.9733,17,48.0,2.964,-0.000151064615,-0.005515943519,-0.011887034559,0,7,355.9707646,2,0,10,11.0,0.0,230.8030568999392,413.9330000000001,180.39018
H-524,CCC1=CC=CC(CC)=C1N(COC)C(=O)CCl,-3.17,18,48.0,7.162000000000001,-0.002122469168,0.002009126943,-0.030020025342,0,8,249.6087532,1,2,14,16.0,0.0,223.02283996596933,396.867,158.122442
B-4650,CCOCN(C(=O)CCl)c1c(C)cccc1CC,-3.0827,18,48.0,2.307,-0.000894849762,0.003294761457,-0.018698677191,0,8,249.6087532,1,2,11,11.0,0.0,224.56876464953,384.171,155.993372
B-1776,CC1CCCCC1NC(=O)Nc2ccccc2,-4.1108,17,45.0,5.38,-8.482073700000001e-05,-0.005888147053,-0.015091050344,0,4,212.1631139,2,1,10,15.0,0.0,199.35237736257295,354.71,141.676798
A-2893,CCC(=O)N(C1CC[NH2+]CC1)c2ccccc2,-0.835225508,17,45.0,2.684,-1.1206213e-05,-0.003311244778,-0.088250186522,0,2,212.1631139,2,1,9,12.0,0.0,197.02580395221344,343.316,140.065558
I-70,CC(C)NCC(O)COc1cccc2[nH]ccc12,-3.79,18,48.0,4.7010000000000005,-0.002319247355,0.001675053269,-0.019711385259,0,5,228.16251890000004,2,2,13,14.0,0.0,212.64083826324,399.443,145.206455
B-4505,Cc1ccc(cc1)[S](=O)(=O)NC(=O)NC2CCCCC2,-4.207,20,54.0,4.678999999999999,-0.006546346353,0.005072911701,-0.026148208842,0,7,276.22671119999995,2,3,15,14.0,0.0,236.0902273734756,390.294,170.937099
B-2395,CCOC(=O)c1cn2nc(O[P](=S)(OCC)OCC)cc2nc1C,-4.9489,23,66.0,19.889,-0.001683868721,0.0053903001619999,-0.0462100006379999,0,12,353.2059862,3,4,21,17.0,0.0,294.4716012860589,537.847,217.064815
C-2123,CCCCCCCC(=O)OCSC1=NC=NC2=C1N=C[NH]2,-4.62,20,57.0,6.098,-0.0017999667009999,0.000155419072,-0.023101279108,0,10,288.2407127,4,2,12,17.0,0.0,245.76053142200865,465.875,178.640844
C-2217,CCCCCC(=O)OC[N]1C=NC2=C1C(=O)N(C)C(=O)N2C,-2.64,22,60.0,5.374,-0.003410876637,0.010128569856,-0.020347360335,0,12,288.1747351,4,4,16,15.0,-0.001,249.801339389583,447.351,174.387181
C-2241,CCCCCCOC(=O)[N]1C=NC2=C1C(=O)N(C)C(=O)N2C,-3.0,22,60.0,1.514,-0.003888537024,0.008313092141,-0.022144645292,0,8,288.1747351,4,4,23,19.0,0.0,244.8968809359585,506.699,174.493348
A-1005,CC(Cc1ccc(cc1)C(C)(C)C)C=O,-3.791782061,15,39.0,4.833,-0.000423443714,0.001497381919,-0.005644535482,0,4,184.1497075,0,1,8,10.0,0.0,189.57184003510676,363.818,126.865012
A-360,C1CCC(CC1)OCCc2ccccc2,-2.418090055,15,39.0,1.499,-9.0424752e-05,-0.002704764193,-0.003750287122,0,2,184.1497075,0,1,11,11.0,0.0,174.16373506337564,357.031,128.540548
A-1626,O=CCC\C=C1/CC2CC1C3CCCC23,-4.090187913,15,39.0,2.0580000000000003,-0.000933211371,0.001699895221,-0.0051855122129999,0,3,184.1497075,0,1,10,9.0,0.0,167.80040902082203,351.662,118.843038
A-896,CC1CC(C)(C)OC(Cc2ccccc2)O1,-2.7446854430000003,16,42.0,3.0,-0.000236116747,-0.001010511943,-0.00840584011,0,4,200.1491124,0,2,13,15.0,-0.001,196.2719819647413,375.444,135.321038
A-148,CCCC(=O)OC(C)(C)Cc1ccccc1,-4.135942613,16,42.0,4.11,-0.00038975474,-0.000790512152,-0.006397001753,0,7,200.1491124,0,2,7,11.0,0.0,198.2809299059313,356.076,130.870446
B-1597,CCCCCCCOC(=O)c1ccc(O)cc1,-4.0725,17,45.0,13.212,-0.0043350433149999,0.007042918323,-0.031386636344,0,6,216.1485174,0,3,10,12.0,0.001,196.55985423532343,422.194,136.996285
A-1718,O=C(OCC1CCC2OC2C1)C3CCC4OC4C3,-1.26048469,18,48.0,0.615,-0.002981113066,0.011067974424,-0.008733880455,0,8,232.14792230000003,0,4,8,12.0,0.0,190.4676451248999,369.289,142.439328
B-2107,O=[P](Oc1ccccc1)(N2CCOCC2)N3CCOCC3,0.3925,21,57.0,3.665,-0.0047397606929999,0.00774210051,-0.003800871914,0,7,291.1350907,2,4,16,13.0,-0.001,239.14767320973888,387.013,180.508985
A-4972,Cc1cccc(C)c1NC(=O)C[NH+]2CC[NH2+]CC2,0.443282789,18,48.0,7.757999999999999,-0.000735152676,-0.001943443933,-0.283230259631,0,3,226.1698171,3,1,15,12.0,0.0,200.5940985314648,434.756,144.8714
C-1886,CCCCCCCC(=O)NNC(=O)C1=CC=NC=C1,-2.91,19,51.0,0.563,-0.003794486781,0.002397570113,-0.029008476824,0,7,242.1692221,3,2,8,13.0,0.0,219.71867904301132,439.122,155.490549
F-899,CCCCCCN(C)N=NC1=CC=C(C(=O)O)C=C1,-2.52,19,51.0,14.118,-0.0064626827639999,0.002958791867,-0.084088197727,0,6,242.1692221,3,2,11,16.0,0.001,225.9861807887757,456.636,156.425911
B-2106,CN(C)C(=O)Nc1cccc(OC(=O)NC(C)(C)C)c1,-2.9342,20,54.0,5.534,-0.003036241634,0.0031109200959999,-0.016174520548,0,10,258.168627,3,3,13,13.0,0.0,245.5456010047785,437.285,156.11081299999998
C-534,CC(C)NCC1CCC2=C(N1)C=C(C(=C2)CO)[N+]([O-])=O,-2.97,20,54.0,10.016,-0.005281349342,0.008202081635,-0.035269168666,0,10,258.168627,3,3,11,10.0,-0.001,226.73843631014927,421.386,160.21444
B-1625,Cc1ccc(cc1)[S](=O)(=O)NC(=O)NN2CCCCCC2,-3.6778,21,57.0,5.892,-0.006823835805,0.006657186892,-0.037506809525,0,9,290.2334144,3,3,13,15.0,0.0,249.9801597598584,396.611,180.311436
B-2773,CCC(C)Nc1c(cc(cc1[N+]([O-])=O)C(C)(C)C)[N+]([O-])=O,-5.4703,21,57.0,5.091,-0.00715064628,0.012928575473,-0.031318196798,0,12,274.1680319,3,4,16,14.0,-0.001,244.57346765883852,443.612,163.40781299999998
F-1094,CC(O)C1C(=O)N2C(C(=O)O)=C(SCC(=N)N(C)C)C(C)C12,-0.28,21,60.0,3.926,-0.0030432631089999,0.010692780981,-0.012169685119,0,14,306.2328193,3,4,14,11.0,0.0,254.14559843891377,460.629,180.673395
B-4555,CCCCCCCOC(=O)c1ccc(N)cc1,-4.6001,17,45.0,4.978,-0.000367729444,-0.001423680553,-0.017796225035,0,5,214.1558157,1,2,14,12.0,0.001,205.5576934652978,442.531,138.08838500000002
B-3165,CCCCCCCCOC(=O)c1cccnc1,-3.0929,17,45.0,6.379,-0.001802598631,-0.000797170546,-0.014156754524,0,5,214.1558157,1,2,10,10.0,0.0,198.9485273229471,424.7,142.17966
F-454,CCCC(CCC)(C(=O)NO)C1=CC=CC=C1,-2.89,17,45.0,7.601,-0.004126655109,0.006303134618,-0.026954778592,0,5,214.1558157,1,2,9,13.0,-0.001,202.3459763665424,393.755,140.638844
F-449,CCC(CC)(CC1=CC=C(C)C=C1)C(=O)NO,-3.35,17,45.0,11.352,-0.003444042135,0.0065469178379999,-0.018204800899,0,6,214.1558156,1,2,14,15.0,0.0,214.6766538674897,393.394,141.249681
F-455,CC1=CC(C)=C(CC(C)(C)C(=O)NO)C(C)=C1,-3.52,17,45.0,12.6,-0.001983392623,0.003030017971,-0.020399509203,0,5,214.1558157,1,2,10,12.0,0.001,233.7560517015017,367.134,142.660774
C-1282,CON(C1CCCCC1)C(=O)C2=C(C)OC(=C2)C,-2.92,18,48.0,1.729,-0.000141949242,-0.00189177738,-0.005012417949,0,7,230.1552206,1,3,11,12.0,0.0,212.64152564497496,393.744,145.725607
F-861,CCCCCCOC1=CC(O)=C(C(C)=NO)C=C1,-4.15,18,48.0,9.758,-0.000634288439,0.005614272729,-0.0066302235549999,0,6,230.1552206,1,3,13,13.0,0.0,208.42875911998124,419.208,148.300361
C-1950,CCCCCOC(=O)C(N)CC1=CC(=C(O)C=C1)O,-0.99,19,51.0,7.817,-0.003121868887,0.013387029261,-0.014535000545,0,6,246.1546255,1,4,18,17.0,0.0,219.60162574035468,493.147,153.097651
B-3300,CCOc1ccc(NC(=O)OC(C)C)cc1OCC,-4.0022,19,51.0,3.135,-0.000460667365,0.003443330026,-0.010053689133,0,7,246.1546255,1,4,16,13.0,0.0,232.61467618885015,478.287,155.688386
B-2962,CCCN(CCC)C(=O)SCc1ccccc1,-4.2798,16,45.0,13.098,-0.0036662027059999,0.002691586351,-0.040323958275,0,5,230.2211981,1,1,6,12.0,-0.001,220.59867725030256,368.84,156.825802
B-3625,CCCCCCCCc1ccccc1,-6.46,14,36.0,5.481,-1.316455e-06,-0.005431049913,-0.010467205852,0,1,168.15030259999995,0,0,7,12.0,-0.001,172.56074152200912,378.715,126.038752
C-554,CCN(CC)CCNC(=O)C1=CC(=C(N)C=C1OC)Cl,-3.18,20,54.0,11.06,-0.002864655261,-0.001848080946,-0.055567355936,0,9,277.62215960000003,3,2,19,15.0,0.0,246.53603561630837,494.578,174.737828
F-427,CCN(CC)CC(=O)NC1=C(C)C=CC=C1C,-1.78,17,45.0,7.131,-0.00094738546,0.000736553702,-0.011113252511,0,3,212.1631139,2,1,19,13.0,0.0,216.6413307686223,360.651,145.20193999999998
E-726,c1cc(N)ccc1C(=O)OCCNCCCCC,-3.27,18,48.0,4.9030000000000005,-0.00214091742,-0.002347959274,-0.0296360714729999,0,6,228.16251890000004,2,2,10,12.0,0.001,209.3485803243936,442.739,149.64514
F-574,CCN(CC)CC(C)OC(=O)C1=CC=C(N)C=C1,-2.35,18,48.0,3.466,-0.000810817521,-0.00410545681,-0.021563637414,0,7,228.16251890000004,2,2,13,13.0,-0.001,214.70962314303185,411.694,150.27784599999998
F-575,CCN(CC)C(C)COC(=O)C1=CC=C(N)C=C1,-2.38,18,48.0,3.818,-0.000813889019,-0.004179858023,-0.022400368195,0,7,228.16251890000004,2,2,14,16.0,0.0,214.77902734476336,413.004,150.290041
B-2713,CC(C)NCC(O)COc1ccc(CC(N)=O)cc1,-1.3016,19,51.0,6.933,-0.004415441524,0.007008749537,-0.030721998196,0,7,244.1619238,2,3,14,14.0,0.0,227.7871244629209,440.527,153.49981200000002
C-266,O=C1NC(=O)C2(CCCCCCCCCC2)C(=O)N1,-4.59,19,51.0,22.031,-0.006369548722,0.009586256978,-0.064061959983,0,5,244.1619238,2,3,20,15.0,0.0,210.4428562161484,375.949,153.197766
C-1358,CCCCC(=O)N(C)C1=CC=C(C=C1)[S](=O)(=O)N(C)C,-2.85,20,54.0,3.844,-0.00274532801,-0.00098418802,-0.027656978701,0,8,276.22671119999995,2,3,16,13.0,0.0,241.6840470860348,505.244,177.250356
C-1157,CCOC(=O)C(C)(C(=O)NC(=O)NC)C1=CCCCC1,-3.0,20,54.0,18.305,-0.004469805947,0.011389256832,-0.0530200983399999,0,8,260.1613287,2,4,22,12.0,0.0,113.9975422247794,462.891,156.019054
C-1701,CNC(=O)NC(=O)C(C)(C(=O)OCOC)C1=CCCCC1,-2.42,21,57.0,10.938,-0.002300444958,0.003983484657,-0.023931924812,0,8,276.1607336,2,5,23,18.0,0.0,249.85114371712143,460.645,164.864152
C-2467,CCCN(CCC)C1=C(C=C(C=C1[N+]([O-])=O)[S](=O)(=O)N=[S](C)C)[N+]([O-])=O,-4.86,25,72.0,18.48,-0.016112199882,0.018938852519,-0.13023096343,0,19,384.3031198000001,4,6,19,15.0,-0.001,310.44040479474774,530.5269999999999,227.933902
A-1024,C[C@@H]1CC=C(C)[C@H](\C=C\C(C)=O)C1(C)C,-3.802676912,15,39.0,7.826,-0.000311928378,-0.000353001595,-0.011283021329,0,4,184.1497075,0,1,10,11.0,0.0,201.21011027463535,358.847,130.731957
A-2393,CC(=O)C(\C)=C/C1C(=CCCC1(C)C)C,-3.992340979,15,39.0,3.201,-0.000303303578,0.001463873956,-0.008201936731,0,4,184.1497075,0,1,10,13.0,0.0,201.5366164203595,365.524,130.564536
A-433,CC(C)(C)CC(C)(C)c1ccc(O)cc1,-4.469462233,15,39.0,3.466,-0.001558147965,0.001136465358,-0.011254162258,0,5,184.1497075,0,1,14,12.0,-0.001,199.3490299698373,369.039,125.933061
A-1004,CC(C)(C)c1ccc(O)c(c1)C(C)(C)C,-3.796046333,15,39.0,3.87,-4.5126938e-05,-0.002127276978,-0.005567310831,0,3,184.1497075,0,1,10,12.0,-0.001,200.94831866848443,352.171,128.07384199999998
A-1091,CC(C)(C)c1cccc(c1O)C(C)(C)C,-4.713587378,15,39.0,6.486000000000001,-0.000772584396,-0.001694752886,-0.0152965895199999,0,4,184.1497075,0,1,12,15.0,0.0,199.42682284066728,344.28,125.792717
A-1161,CCCCCC(CO)Cc1ccccc1,-3.843268562,15,39.0,6.044,-8.4856099e-05,0.00167693065,-0.005554839129,0,2,184.1497075,0,1,7,10.0,0.0,183.15963106090547,347.418,131.169418
B-2166,CC[C@@H](C)c1cccc([C@@H](C)CC)c1O,-5.0593,15,39.0,11.297,-0.00023563963,-0.003696246715,-0.024021391673,0,5,184.1497075,0,1,7,12.0,0.0,185.91033696235544,348.342,131.209544
A-2392,CCC(=O)/C=C/C1C(=CCCC1(C)C)C,-3.992340979,15,39.0,4.352,-0.000794379035,0.001304606266,-0.010967785026,0,4,184.1497075,0,1,9,13.0,0.0,193.73135439484585,365.328,131.313804
A-1748,CCC(=O)/C=C/C1=C(C)CCCC1(C)C,-4.187455475,15,39.0,4.562,-0.000797750455,0.001299688461,-0.011023718112,0,4,184.1497075,0,1,10,11.0,-0.001,193.73601897683855,365.878,131.315419
A-1829,CC1C(C)(C)C2=C(C(=O)CCC2)C1(C)C,-3.2653422510000003,15,39.0,8.197000000000001,-0.00139770969,-0.000452322007,-0.025471740932,0,5,184.1497075,0,1,8,10.0,0.0,193.14082871348373,345.1,132.237572
A-1714,COC(=O)C1CC2(CCC1(C)C=C2)C(C)C,-4.200866126,16,42.0,7.677,-0.001265699565,0.001548492066,-0.01146984106,0,4,200.1491124,0,2,15,14.0,0.0,201.9288788034404,385.844,136.018939
B-2590,CCCC(O)(CCC)C(O)c1ccccc1,-2.648,16,42.0,6.279,-0.00176737914,0.001918188793,-0.0134258281269999,0,6,200.1491124,0,2,10,10.0,0.001,192.47572166617667,371.557,134.080288
A-543,CC(=C)C(=O)OC1CC2CCC1(C)C2(C)C,-4.544220436,16,42.0,4.721,-0.00225323768,0.0011201844599999,-0.019494137515,0,5,200.1491124,0,2,10,12.0,0.0,186.8515809508791,434.032,137.185256
A-1313,CC(=C)C(=O)OCCCCCCOC(=O)C(C)=C,-4.043662925,18,48.0,0.281,-0.004285472112,0.008098069363,-0.016361513862,0,8,232.14792230000003,0,4,14,16.0,0.0,217.56364544251431,461.453,144.495687
A-3892,CC(=C)C(=O)OCCOCCOCCOC(=O)C(C)=C,-1.900555252,20,54.0,13.154000000000002,-0.004742090479,0.012518665795,-0.025836713911,0,10,264.1467321,0,6,22,20.0,0.0,235.5570986459282,496.494,154.749814
A-3091,C=CC(=O)OCCOCCOCCOCCOC(=O)C=C,-0.500013296,21,57.0,5.877999999999999,-0.004184444389,0.014522621309,-0.034117341649,0,10,280.146137,0,7,21,18.0,0.0,239.2557569964769,526.059,162.838244
F-668,CC(=O)OC1C(C2COC(C)(C)O2)OC2OC(C)(C)OC21,-1.52,21,57.0,3.3510000000000004,-0.000732290999,0.009905037132,-0.013383769229,0,11,280.146137,0,7,16,14.0,0.0,239.71854395601105,429.531,160.40636
B-2486,CC(=O)O[C@H]1[C@H](O[C@@H]2OC(C)(C)O[C@H]12)[C@H]3COC(C)(C)O3,-1.5229,21,57.0,3.357,-0.000726663407,0.0098633684099999,-0.01353260403,0,11,280.146137,0,7,16,13.0,0.0,239.7260796146838,429.645,160.420204
C-2195,CC1CN(CCO1)[S](=O)(=O)NC(=O)NCC2CC3CC2C=C3,-2.26,22,60.0,7.427,-0.009313865651,0.012686281476,-0.039138801182,0,11,306.2328193,3,4,18,17.0,0.001,226.452127322708,444.689,176.930566
C-2044,CCCCCCC(C(C)O)[N]1C=NC2=C1N=CN=C2N,-2.25,20,54.0,7.731,-0.000101886531,-0.008609601874,-0.027662009605,0,7,254.1832236,5,1,17,17.0,0.0,232.59994436166895,458.262,164.342804
B-1894,CCCCO[P](=O)(OCCCC)Oc1ccccc1,-3.4746,19,51.0,17.25,-0.016819725456,0.003617502486,-0.0507265113729999,0,9,263.1216843,0,4,17,14.0,0.0,228.827047874764,434.282,170.285378
A-2561,CCCCC(CC)CN[S](=O)(=O)c1ccc(N)cc1,-5.453967767000001,19,51.0,5.986000000000001,-0.007708648682,0.00219439356,-0.048132746352,0,7,260.2273063,2,2,12,13.0,0.0,228.97578038442745,462.159,172.080995
C-226,CCCCCCCCC1(CC)C(=O)NC(=O)NC1=O,-3.94,19,51.0,2.924,-0.002159804362,0.00559243279,-0.013086364193,0,6,244.1619238,2,3,14,14.0,0.0,228.1688609125864,467.234,156.976147
B-1489,CC(C)O[P](=S)(OC(C)C)SCCN[S](=O)(=O)c1ccccc1,-4.2014,22,63.0,9.169,-0.005894684751,0.008146420749,-0.0338851765849999,0,15,373.3227497,1,4,12,12.0,0.0,311.9947857295133,485.752,234.79271
A-4993,CC(O)C(C)\C=C/C1CC=C(C)C1(C)C,-3.786028703,15,39.0,6.752000000000001,-0.000393003729,0.0008108674379999,-0.0111934350139999,0,4,184.1497075,0,1,12,11.0,0.0,195.104110558426,411.826,131.171653
A-868,CC(CCC=O)C1C(=CCCC1(C)C)C,-4.653202091,15,39.0,0.5539999999999999,-0.000896057198,0.001471192855,-0.004024622518,0,1,184.1497075,0,1,8,13.0,0.0,212.33711522406188,367.513,130.672479
A-1112,CC(C)C(=O)OC(C)(CCC=C(C)C)C=C,-4.810584984,16,42.0,8.357000000000001,-0.002046315007,-0.00033938488,-0.029183521126,0,6,200.1491124,0,2,5,9.0,0.0,224.20341677049407,435.16,138.703982
A-4966,CCOC(=C)C1C(C)(C)CC(=O)CC1(C)C,-3.643344283,16,42.0,3.655,-0.002029551026,0.002950230251,-0.018148876791,0,8,200.1491124,0,2,6,10.0,0.0,211.7739993668685,377.435,125.629419
A-74,C1CC(CCC1COCC2CO2)COCC3CO3,-1.835797234,18,48.0,4.311,-0.001499713287,0.0059557066469999,-0.015380772497,0,5,232.14792230000003,0,4,24,17.0,0.0,195.6638559088893,441.86800000000005,139.75443700000002
A-373,O=C1CCCCCCCCCCC(=O)OCCO1,-3.533758505,18,48.0,10.724,-0.004683091787,0.010336270161,-0.018971747139,0,8,232.14792230000003,0,4,14,13.0,0.0,201.953807959888,382.352,144.978151
A-3501,CC(C)(C)NC(=O)[C@@H]1C[C@@H]2CCCC[C@H]2C[NH2+]1,-2.161609361,17,45.0,6.221,-6.7843403e-05,-0.004031329241,-0.078085009282,0,3,212.1631139,2,1,14,13.0,-0.001,210.35070160947245,358.536,140.02242900000002
F-585,CC(C)(C)CC(C)(C)C1CC/C(=N/O)/C(=N\O)/C1,-6.41,18,48.0,1.461,-0.004047700287,0.007587564464,-0.016788147814,0,4,228.16251890000004,2,2,20,16.0,0.0,222.4838973806612,446.064,147.607058
A-4992,CCCCCCCCCC(C)(C)SSC1=NNC(=S)S1,-3.988563911,18,54.0,18.436,-0.0005510202749999,-0.000295620612,-0.042816189692,0,11,324.4228587,2,0,6,11.0,-0.001,284.8635656380838,551.234,220.883477
A-2095,CC(CCCC(C)C=O)CCC=C(C)C,-5.496890424,15,39.0,5.0760000000000005,-0.001069850951,0.000717196998,-0.010124737586,0,3,184.1497075,0,1,4,12.0,-0.001,205.79833634086128,420.755,131.623582
A-4597,CC(C)CC(C)(O)C#CC(C)(O)CC(C)C,-2.124350764,16,42.0,4.334,-9.9473741e-05,0.0012235424069999,-0.009621824551,0,8,200.1491124,0,2,7,12.0,0.0,212.4919255784357,401.091,131.21913899999998