Name,SMILES,Solubility,AtomNum,DegFreedom,Dipole,Ghb,Gsasa,Gsolv,HNum,LP,MolWt,NNum,ONum,PiCenters,PiDeloc,Quadrupole,Volume,SASA,Polarizabilty
B-4335,CN1N(C(=CC1=S)C)c2ccccc2,-1.6668,14,36.0,7.228,-3.8656386e-05,-0.001101018594,-0.010749749445,0,3,192.1962887,2,0,13,12.0,0.0,179.25324297576918,358.471,132.650959
B-4503,Cc1cnc(N[S](=O)(=O)c2ccc(N)cc2)nc1,-2.82,18,48.0,4.346,-0.006341279286,-0.000310071166,-0.030469142785,0,10,252.208505,4,2,16,12.0,0.0,193.76473372417,419.406,157.200554
F-824,CC1=CC=NC(NS(=O)(=O)C2=CC=C(N)C=C2)=N1,-2.63,18,48.0,5.085,-0.007257064348,0.002874290176,-0.022063252706,0,10,252.208505,4,2,13,12.0,0.001,211.00656120334511,372.146,156.135288
C-2287,CN1C=CC(=NC1=O)N[S](=O)(=O)C2=CC=C(N)C=C2,-2.36,19,51.0,5.052,-0.007951648987,0.008678270666,-0.020419891795,0,10,268.2079099,4,3,21,11.0,0.0,214.0925776433521,421.296,163.016579
C-857,COC1=CC=C(N[S](=O)(=O)C2=CC=C(N)C=C2)N=N1,-2.68,19,51.0,11.924,-0.006660852736,0.000415068503,-0.043525722461,0,10,268.2079099,4,3,17,15.0,-0.001,198.46640062646267,399.093,163.977605
B-4504,COc1cnc(N[S](=O)(=O)c2ccc(N)cc2)nc1,-2.5843,19,51.0,11.691,-0.0069145567079999,0.001262718367,-0.044301277639,0,8,268.2079099,4,3,21,15.0,0.0,199.46287738756385,407.223,163.925224
C-2218,CC(=O)OCSC1=NC=NC2=C1N=C[N]2COC(C)=O,-2.54,20,54.0,16.307000000000002,-0.002821711096,0.005591061322,-0.031554359169,0,9,284.2073148,4,4,23,15.0,-0.001,239.95084178213284,441.415,167.21556299999995
C-700,CN(C)C(=O)C1=CC(=C(C=C1[N+]([O-])=O)[N+]([O-])=O)N2CC2,-2.48,20,54.0,1.465,-0.0061630755319999,0.017484397196,-0.027650255642,0,14,268.1419323,4,5,13,15.0,-0.001,210.9895948901612,404.87,150.947791
C-2105,CCNC(=O)C1=CC(=C(C=C1[N+]([O-])=O)[N+]([O-])=O)N2CC2,-3.13,20,54.0,3.119,-0.0069434568649999,0.017479814865,-0.0290092849289999,0,13,268.1419323,4,5,16,14.0,0.0,207.98380385504203,412.634,151.921701
C-1388,CC(=O)OC[N]1C=C2C(=O)N(COC(C)=O)C=NC2=N1,-1.99,20,54.0,16.584,-0.003327814162,0.010503072103,-0.03541874645,0,8,268.1419323,4,5,29,19.0,-0.001,228.93623476794968,431.541,152.066233
E-655,COP(=S)(OC)SCN2C(=O)c1ccccc1C2=O,-4.1,19,51.0,4.604,-0.0021341870759999,0.008575866767,-0.005397812093,0,13,305.2257546,1,4,17,10.0,0.0,242.7160178477901,455.4980000000001,189.306318
A-1174,CC(=O)OC\C=C\c1ccccc1,-2.792724534,13,33.0,3.811,-0.00140754714,0.002003413022,-0.018244010418,0,4,164.1169047,0,2,7,12.0,0.0,153.72030821811182,337.372,107.831963
B-2186,CC=C(Cc1ccccc1)C(O)=O,-2.5648,13,33.0,3.939,-0.000751807475,0.002618930147,-0.003039443903,0,3,164.1169047,0,2,13,10.0,0.001,157.70334615584412,324.607,109.059935
E-709,O=C(OCC)C=Cc(cccc1)c1,-3.0,13,33.0,10.389,-0.002278342903,0.002513322277,-0.018412070285,0,4,164.1169047,0,2,13,12.0,0.0,152.49403063369792,337.968,108.427654
A-1577,CCOC(=O)\C=C\c1ccccc1,-3.013046764,13,33.0,10.404000000000002,-0.002283797763,0.00251674263,-0.018455730284,0,4,164.1169047,0,2,13,7.0,0.0,152.49888717525653,338.023,108.429596
A-3883,C1OCC2Cc3ccccc3C2O1,-1.6560932730000002,13,33.0,1.456,-8.9620299e-05,0.0005127191569999,-0.000274424826,0,3,164.1169047,0,2,8,11.0,0.0,139.13854848439152,285.298,107.749985
A-1511,CC(=C)C(=O)OCc1ccccc1,-2.9682045410000004,13,33.0,6.417000000000001,-0.000159131188,0.0024079484109999,-0.009135901228,0,6,164.1169047,0,2,7,7.0,0.0,161.89645399772198,350.969,105.60927
A-47,C=CC(=O)OCCOc1ccccc1,-2.563625713,14,36.0,7.756,-0.001963082104,0.004602335678,-0.010299801389,0,6,180.1163097,0,3,13,9.0,0.0,161.43532531337402,350.607,113.485484
A-377,CCOC(=O)C1OC1c2ccccc2,-2.409651238,14,36.0,10.173,-0.003037332069,0.006421638301,-0.01992418217,0,4,180.1163097,0,3,13,14.0,-0.001,153.8967420019277,344.343,112.743558
B-2850,CCOc1ccccc1\C=C/C(O)=O,-2.5234,14,36.0,13.609000000000002,-0.0049959861,0.007923980975,-0.037117233295,0,5,180.1163097,0,3,13,14.0,0.0,159.66219624417317,345.49800000000005,114.034709
A-606,C=CCOC(=O)COc1ccccc1,-2.536373209,14,36.0,3.313,-0.000492003637,0.004235766663,-0.003028448807,0,4,180.1163097,0,3,12,13.0,0.0,166.32354950245605,376.641,114.358139
A-4711,CC(Cc1ccc2OCOc2c1)C=O,-2.31343814,14,36.0,7.996,-0.000497937848,0.0079199787659999,-0.005200160183,0,5,180.1163097,0,3,10,12.0,0.0,155.7426431757895,323.486,112.526739
B-1974,COc1ccc(cc1)C(=O)CCC(O)=O,-1.0632,15,39.0,31.248,-0.009952467979,0.013388331365,-0.128180714786,0,7,196.1157146,0,4,15,10.0,0.0,166.6451634562955,365.589,118.61843600000002
B-3351,COC(=O)C1(CC1)[S](=O)(=O)c2ccccc2,-2.2601,16,42.0,5.069,-0.005520192248,0.008083110533,-0.021644612492,0,7,228.180502,0,4,16,14.0,0.0,192.09957754948937,356.694,139.843175
B-3228,CSCOC(=O)c1ccccc1OC(C)=O,-2.6404,16,42.0,10.797,-0.002683080176,0.005600856045,-0.021251604964,0,8,228.180502,0,4,15,14.0,0.0,191.63948618841312,384.568,138.96635
F-494,O=C(O)CSC(CC(=O)O)C1=CC=CC=C1,-1.55,16,42.0,15.435,-0.007684360157,0.0140409154309999,-0.057006626884,0,9,228.180502,0,4,16,9.0,0.0,192.39519438477032,375.612,137.101932
F-979,O=C(O)CC(CSC(=O)O)C1=CC=CC=C1,-1.24,16,42.0,12.021,-0.005464828717,0.014154194933,-0.037870123166,0,6,228.180502,0,4,18,14.0,-0.001,191.51729072014356,365.557,134.672643
B-3229,CC(=O)Oc1ccccc1C(=O)OC[S](C)=O,-1.7824,17,45.0,16.649,-0.009108036495,0.008932022269,-0.088827069426,0,9,244.1799069,0,5,15,12.0,-0.001,205.46612809817955,372.871,143.803084
B-3230,CC(=O)Oc1ccccc1C(=O)OC[S](C)(=O)=O,-3.3936,17,48.0,8.337,-0.011592788239,0.016854070425,-0.033357390388,0,10,260.17931180000005,0,6,18,14.0,0.0,213.40284245420852,412.245,148.429324
I-14,Brc1cc2c(CN(C)C)c[nH]c2cc1,-4.06,14,36.0,3.744,-8.9490309e-05,-0.006090847088,-0.0131572378239999,0,4,240.0350291,2,0,11,9.0,0.0,178.89122255443485,362.407,134.08580600000002
F-638,CCCCOC(=O)C1=CC(Br)=C(O)C=C1,-3.67,14,39.0,1.09,-0.0036408647739999,0.007321604669,-0.017583406494,0,9,260.0198374,0,3,14,10.0,0.0,179.8805503422569,390.815,132.280364
B-3476,CC1(C)OC(CN1C(=O)C(Cl)Cl)c2occc2,-3.1498,16,45.0,4.46,-0.00105590643,0.0070191092929999,-0.0068463189159999,0,12,265.028888,1,3,11,7.0,0.001,213.2706288214871,399.239,146.221423
B-2662,CCSC(=O)COc1ccc(Cl)cc1C,-5.027,14,39.0,5.925,-0.000768888964,0.0073243575659999,-0.009660350291,0,10,231.6346297,0,2,10,8.0,0.0,200.35657114091853,370.663,143.87231599999998
F-637,CCCCOC(=O)C1=CC(Cl)=C(O)C=C1,-3.51,14,39.0,2.072,-0.003604238081,0.009128312397,-0.01579503724,0,9,215.5692472,0,3,14,11.0,0.0,177.3339732934175,382.8730000000001,125.756282
B-378,Cc1cc(Cl)ccc1OCCCC(O)=O,-3.678,15,39.0,5.055,-0.0029687095909999,0.010471120318,-0.0098658547069999,0,9,215.5692472,0,3,13,10.0,-0.001,178.53299872083255,374.912,126.988495
C-621,CC(C)OC(=O)C[S](=O)(=O)C1=CC=C(Cl)C=C1,-2.41,16,45.0,5.377999999999999,-0.00667465297,0.013439225293,-0.023451624834,0,10,263.6334396,0,4,13,13.0,0.0,221.17841934690696,407.125,153.067451
A-4756,CO[Si](CCC(F)(F)C(F)(F)C(F)(F)C(F)(F)C(F)(F)C(F)(F)F)(OC)OC,-2.892356214,28,78.0,5.971,-0.000565446466,0.017790719742,-0.011147010926,0,46,455.1810494,0,3,11,5.0,0.0,301.7300120378112,480.034,181.036009
B-2971,CC(=O)Nc1cc(N[S](=O)(=O)C(F)(F)F)c(C)cc1C,-3.2365,20,54.0,4.877,-0.004028992872,0.007867591439,-0.03341328233,0,19,297.189713,2,3,6,12.0,0.0,224.45263014959045,384.055,152.47121
B-2710,CCN(CC)c1c(cc(c(N)c1[N+]([O-])=O)C(F)(F)F)[N+]([O-])=O,-5.4668,22,60.0,2.919,-0.005784302489,0.017413660261,-0.035539358218,0,20,309.1377369,4,4,19,14.0,0.0,235.4561636203788,433.892,157.378379
B-2453,CCCCOC(=O)c1ccc(O)c(I)c1,-3.9033,14,39.0,3.326,-0.003703692961,0.005238226576,-0.019474977466,0,9,307.0207816,0,3,14,9.0,0.0,188.22915455419343,403.45,143.518968
B-2919,Cc1nn(c2ccccc2)c(N)c1C,-1.6704,14,36.0,3.542,-2.523243e-06,-0.005916055855,-0.008173178916,0,4,174.1382045,3,0,9,10.0,0.0,170.50525391892617,300.219,117.909429
C-577,CN1N(C2=CC=CC=C2)C(=O)C(=C1C)N,0.31,15,39.0,9.013,-0.001318699297,-0.001186118461,-0.020349719422,0,5,190.1376095,3,1,12,9.0,-0.001,171.26802096869395,322.095,123.834884
F-369,CC(CCC(=O)O)=NNC(=O)C1=CC=NC=C1,-1.59,17,45.0,6.432,-0.004410033739,0.0107807890109999,-0.013512250418,0,7,222.1364193,3,3,13,13.0,0.0,197.5764575334006,388.957,131.98699299999998
E-885,O=S(=O)(Nc(onc1C)c1C)c(ccc(N)c2)c2,-2.91,18,48.0,6.27,-0.0072431571569999,0.00332385484,-0.025739840114,0,12,254.2012067,3,3,14,11.0,0.0,211.23059191513929,366.221,151.641221
C-1409,CC1=C(C)N=C(N[S](=O)(=O)C2=CC=C(N)C=C2)O1,-2.22,18,48.0,5.345,-0.0065698389419999,0.0055666616669999,-0.024524029694,0,10,254.2012067,3,3,14,9.0,0.0,196.47722776931235,399.535,154.120685
C-2238,CC1=C(C)C(=NO1)N[S](=O)(=O)C2=CC=C(N)C=C2,-2.19,18,48.0,3.358,-0.006860467814,0.0036805436339999,-0.030582079946,0,11,254.2012067,3,3,16,12.0,0.0,201.8759533819364,396.003,148.678593
F-683,NC1=NC2=C(N=CN2C2C=CC(CO)C2)C(O)=N1,-2.3,18,48.0,27.166,-0.003127430175,0.0035691782,-0.0763038125899999,0,7,234.1504208,5,2,15,16.0,0.0,187.0966365694265,374.534,139.298013
F-1130,NC1=NC2=C(C=N1)N=CN2CCC1COC(=O)OC1,-1.43,19,51.0,19.933,-0.001141067594,0.000327665353,-0.044807909417,0,8,250.1498257,5,3,20,14.0,-0.001,203.6292367246178,417.158,146.50923500000002
B-2411,OC[C@@H](NC(=O)CN=[N+]=[N-])[C@H](O)c1ccc(cc1)[N+]([O-])=O,-1.1692,21,57.0,10.989,-0.007480444804,0.014809445466,-0.037459471584,0,11,282.14863560000003,5,5,19,17.0,0.0,225.3795456389373,413.07,155.83919
C-2534,CN1N=C(SC1=N[S](=O)(=O)C2=CC=C(NC(C)=O)C=C2)[S](N)(=O)=O,-1.69,24,66.0,14.559,-0.0109667416739999,0.012404903824,-0.0467863982959999,0,18,378.3429978,5,5,18,16.0,0.0,279.9323991467578,495.837,218.561485
B-2257,CC1CCC(=O)N1c2ccccc2,-0.8457,13,33.0,5.153,-0.00016245416,-0.0013194320699999,-0.004811727496,0,3,162.124203,1,1,6,11.0,0.0,150.10845294423848,287.387,108.821527
A-2943,COc1ccc(CCC#N)cc1OC,-1.901344783,14,36.0,5.081,-1.776474e-05,-0.004458075364,-0.010507065162,0,4,178.12360800000002,1,2,14,9.0,0.001,165.94208727559715,343.581,117.306026
F-509,CC(=O)CC(C)=NC1=CC=C(O)C=C1,-3.59,14,36.0,9.033,-0.003308826652,0.007745696218,-0.0167155594919999,0,3,178.12360800000002,1,2,10,9.0,0.0,176.79089545213935,357.53,110.751441
F-526,CC(=O)CC(C)=NC1=C(O)C=CC=C1,-3.55,14,36.0,3.201,-0.0029425270449999,0.007562728148,-0.012153262981,0,2,178.12360800000002,1,2,9,11.0,0.001,153.4858726815366,391.125,115.801286
A-4143,CC(=O)CC(=O)Nc1ccccc1C,-1.850192261,14,36.0,3.417,-0.001324593235,0.003870595246,-0.003427892494,0,6,178.12360800000002,1,2,8,9.0,0.0,166.64282614001957,320.766,113.335214
F-456,CN(CC(=O)O)C(=S)SCC1=CC=CC=C1,-3.23,16,42.0,17.653,-0.007310449666,0.0116596916519999,-0.059104942792,0,7,242.2531828,1,2,13,12.0,0.0,215.10317442337453,357.50199999999995,151.523305
F-381,CC(C)(NC(=O)C1=CC=CC=C1)C(=O)O,-0.76,15,39.0,4.829,-0.001737695794,0.005545251332,-0.007675785052,0,5,194.1230129,1,3,15,12.0,0.0,184.15326099632907,365.67800000000005,120.505051
B-3410,CN(C)C(=O)COC(=O)c1ccccc1,-1.372,15,39.0,9.093,-0.002886900821,0.005061110386,-0.018339861448,0,7,194.1230129,1,3,11,10.0,0.0,174.0557491364589,347.358,119.063249
B-3100,CCNC(=O)COC(=O)c1ccccc1,-2.2373,15,39.0,4.634,-0.001864705257,0.003143616704,-0.011770238132,0,5,194.1230129,1,3,14,15.0,0.001,171.14271983245774,359.98400000000004,119.666246
C-1816,CCC(=O)OC1=CC=C(NC(C)=O)C=C1,-2.72,15,39.0,2.593,-0.000376854753,0.003437526847,-0.002665220602,0,6,194.1230129,1,3,14,10.0,0.0,173.45155612264546,343.346,120.457282
F-602,CC(CC(=O)NC1=CC=CC=C1)C(=O)O,0.39,15,39.0,4.093999999999999,-0.001115642872,0.004669010294,-0.002982084589,0,5,194.1230129,1,3,16,14.0,0.0,173.31772487970548,376.639,120.234672
F-421,CC(=O)NC(CC1=CC=CC=C1)C(=O)O,-1.41,15,39.0,0.47,-0.000878233698,0.0053965417059999,0.001248555411,0,5,194.1230129,1,3,16,12.0,0.0,176.13425155313868,345.25800000000004,119.405652
A-4151,COc1ccc(NC(=O)CC(C)=O)cc1,-1.901477183,15,39.0,9.503,-0.001783382278,0.0037633603659999,-0.021344981391,0,6,194.1230129,1,3,11,11.0,0.0,173.76860894882554,347.485,120.216501
A-3915,COc1ccccc1NC(=O)CC(C)=O,-1.805905521,15,39.0,10.464,-0.0027758413,0.004557889052,-0.031315894704,0,7,194.1230129,1,3,10,8.0,-0.001,174.0642894527858,335.339,120.210011
B-2797,OC(=O)CCCNC(=O)c1ccccc1,-1.2025,15,39.0,15.85,-0.00713671979,0.012402405093,-0.0480147455279999,0,5,194.1230129,1,3,14,12.0,0.0,166.79662901829158,365.745,118.783471
B-1979,Oc1ccccc1C(=O)N2CCOCC2,-1.7037,15,39.0,8.641,-0.003844996225,0.008844280531,-0.02515225703,0,5,194.1230129,1,3,14,10.0,0.0,164.62627452808783,309.386,118.45722
F-396,CC1(C(=O)O)NCCC2=C1C=C(O)C(O)=C2,-0.75,16,42.0,8.177,-0.003117893267,0.013609723872,-0.008955713265,0,5,210.1224178,1,4,19,13.0,0.0,181.91400650254144,368.89,124.991661
B-2619,CNC(=O)Oc1cccc2OC(C)(C)Oc12,-2.9338,16,42.0,5.401,-0.00153478896,0.005564197412,-0.009609956686,0,8,210.1224178,1,4,12,10.0,0.001,182.54766125141563,362.635,126.426085
C-1241,CN(C)C(=O)COC(=O)C1=C(O)C=CC=C1,-1.71,16,42.0,9.606,-0.003508415547,0.008922824677,-0.019992799821,0,9,210.1224178,1,4,12,11.0,0.0,181.4320324908568,354.85,124.42242
B-2283,CNC(=O)Oc1ccccc1C2OCCO2,-1.5706,16,42.0,5.313,-0.001415983574,0.002940108492,-0.007416828144,0,8,210.1224178,1,4,13,12.0,0.0,174.0955840648771,349.721,125.526379
B-1767,CCCCC(=O)Oc1ccc(cc1)[N+]([O-])=O,-4.3945,16,42.0,6.3,-0.004171017414,0.0116889353829999,-0.014416036802,0,7,210.1224178,1,4,14,12.0,0.0,177.85203880217637,365.864,126.035459
A-4402,CCOC(=O)c1ccnc(c1)C(=O)OCC,-1.2184149,16,42.0,6.14,-0.003173240467,0.006904600017,-0.018078299724,0,7,210.1224178,1,4,15,12.0,0.0,179.9873809753427,382.297,126.780125
F-395,CCOC(=O)OC1=CC=C(NC(C)=O)C=C1,-2.67,16,42.0,4.188,-0.000441590213,0.006053636452,-0.0014207682029999,0,7,210.1224178,1,4,16,12.0,0.0,182.1884058463394,360.8080000000001,125.548828
F-521,CC(=O)NC(CC1=CC=C(O)C=C1)C(=O)O,0.01,16,42.0,6.965,-0.002957575624,0.010190311443,-0.009627130836,0,7,210.1224178,1,4,17,11.0,-0.001,183.7445853700782,365.811,124.822979
F-600,CC(O)C(NC(=O)C1=CC=CC=C1)C(=O)O,-1.23,16,42.0,3.028,-0.002724428285,0.013472213648,-0.001975364538,0,5,210.1224178,1,4,18,12.0,0.0,189.1239842485004,376.431,124.246622
B-2548,CC(C)CC(=O)Oc1ccc(cc1)[N+]([O-])=O,-4.3945,16,42.0,6.321000000000001,-0.004170176104,0.011688875575,-0.0144034239449999,0,7,210.1224178,1,4,14,13.0,0.0,187.0639272338409,365.851,126.036335
F-606,O=C(O)CNC(CC1=CC=CC=C1)C(=O)O,-2.16,16,42.0,1.505,-0.001495689753,0.008356777511,0.001763502937,0,5,210.1224178,1,4,22,13.0,0.001,166.5054199289327,382.711,126.00938700000002
F-609,O=C(O)CNC(CC1=CC=C(O)C=C1)C(=O)O,-2.59,17,45.0,10.228,-0.006873026101,0.017694189353,-0.041623986794,0,8,226.1218227,1,5,20,13.0,0.001,188.0320287090297,395.728,125.664847
A-1479,CCN(CCCl)c1ccc(C=O)cc1,-3.033448375,14,36.0,9.63,-0.0026769578669999,0.003865210688,-0.016877399502,0,6,197.5771406,1,1,9,9.0,0.0,175.0738526370107,341.645,120.487729
B-4647,CC(C)N(C(=O)CCl)c1ccccc1,-2.4806,14,36.0,5.235,-0.001770721552,0.0017097280899999,-0.012294620392,0,6,197.5771406,1,1,9,11.0,0.0,177.05749199933098,327.24,124.273893
A-3703,OC1(CCNCC1)c2ccc(Cl)cc2,-1.720777531,13,36.0,7.407,-0.001480344496,0.002127950136,-0.009520411132,0,5,197.5771406,1,1,12,10.0,0.0,158.7569484654109,369.156,121.482023
B-1812,CCC(C)OC(=O)Nc1cccc(Cl)c1,-3.1727,14,39.0,5.783,-0.0016848837229999,0.001644728113,-0.012578141687,0,9,213.5765455,1,2,7,8.0,0.001,183.55780037318985,376.501,128.9329
B-2927,CNC(=O)Oc1ccccc1OC(CCl)OC,-2.3005,16,45.0,4.542,-0.001549490212,0.0027919548969999,-0.005908660059,0,11,245.5753554,1,3,15,12.0,0.0,204.4485628826509,426.904,142.04965
A-4975,CC(C)N(C(=O)CO)c1ccc(F)cc1,-1.178639899,15,39.0,7.019,-0.000296282815,0.007480113834,-0.012408239417,0,6,197.1220111,1,2,9,10.0,0.0,171.58076429462258,333.5,117.908151
E-886,C1=CC(=O)N2CC(C3)CNCC3C2=C1,0.36,14,36.0,4.186,-0.001945187029,0.000392342921,-0.0116261911889999,0,3,176.1309062,2,1,13,12.0,0.0,152.56065352989148,288.183,115.481551
B-2976,CC(C)(NC(=O)c1ccccc1)C(N)=O,-1.6154,15,39.0,5.744,-0.002080948475,0.005301561032,-0.007515418222,0,4,192.1303112,2,2,12,11.0,0.0,182.7785078522801,337.13699999999994,119.70963
A-4678,CCCCN1C(=O)C=C(C)C(=C1O)C#N,-2.272990744,15,39.0,8.964,-0.002344403883,0.004368975603,-0.030513608391,0,6,192.1303112,2,2,12,13.0,-0.001,178.28709689800567,367.153,123.60349
B-2275,CC(=O)NC(NC(C)=O)c1ccccc1,-1.3144,15,39.0,3.99,-0.0002673474759999,0.002385895763,-0.005837433081,0,4,192.1303112,2,2,16,14.0,0.0,174.7846855370079,352.144,121.11108
F-524,NCC(=O)NC(CC1=CC=C(O)C=C1)C(=O)O,-0.73,17,45.0,2.487,-0.004365930072,0.01142946033,-0.0139166562559999,0,7,224.129121,2,4,24,13.0,0.0,191.7670440616013,385.453,131.338527
F-403,NC(CC1=CC=C(O)C=C1)C(=O)NCC(=O)O,-1.1,17,45.0,6.108,-0.003704688897,0.012303389708,-0.009972734462,0,8,224.129121,2,4,17,13.0,0.0,191.9941124598592,412.355,127.957606
F-1182,O=C(O)C1CCC(=O)N1CN1C(=O)CCC1C(=O)O,-1.31,19,51.0,3.962,-0.002586433054,0.013963453392,-0.008376662873,0,12,256.1279308,2,6,20,14.0,0.0,216.9715889718466,373.6,138.877964
A-1973,CC(C)(C)NSc1sc2ccccc2n1,-5.136722389,15,39.0,6.109,-0.000116566774,-0.001688872745,-0.006345428236,0,8,224.2610761,2,0,9,10.0,0.0,202.34735646854045,373.894,152.546463
F-360,CC1=CC(C)=NC(OC2=NN(C)C(C)=C2)=N1,-1.52,16,42.0,10.04,-5.247351e-05,-0.005127096328,-0.013115938765,0,3,204.1443127,4,1,17,13.0,0.0,197.6515362426705,373.837,132.805405
C-2064,CCCCC(=O)OCSC1=NC=NC2=C1N=C[NH]2,-3.1,18,48.0,8.429,-0.002011835574,-0.000534261926,-0.019341696996,0,7,252.208505,4,2,15,12.0,-0.001,207.3066182322319,402.979,153.347164
B-3174,CCCc1sc(N[S](=O)(=O)c2ccc(N)cc2)nn1,-3.3075,19,51.0,5.202999999999999,-0.006726589031,0.001595793253,-0.030040657738,0,12,284.27329239999995,4,2,13,12.0,0.0,212.30557117739232,468.926,178.699711
B-263,CC(C)c1sc(N[S](=O)(=O)c2ccc(N)cc2)nn1,-3.4141,19,51.0,2.263,-0.00549551839,0.000592347385,-0.024366589666,0,14,284.27329239999995,4,2,12,9.0,-0.001,234.69410526069043,402.825,174.239847
C-1320,CC(C)(C)C(=O)OC[N]1C=C2C(=O)NC=NC2=N1,-2.17,18,48.0,3.791,-0.002465602091,0.004439309182,-0.0100544499179999,0,8,236.1431225,4,3,18,15.0,0.001,207.96146006082088,394.99300000000005,134.8624
C-1323,CC(C)(C)C(=O)OC[N]1N=CC2=C1N=CNC2=O,-2.68,18,48.0,7.468,-0.001807853524,0.002450360727,-0.0154458018029999,0,8,236.1431225,4,3,20,12.0,0.0,211.5091342404187,415.635,137.056632
C-2127,CCCC(=O)[N]1C=NC2=C1C(=O)N(C)C(=O)N2C,-1.53,18,48.0,7.401,-0.003380087996,0.010196484627,-0.014019536749,0,8,236.1431225,4,3,15,14.0,0.0,206.5766340212481,369.518,137.656768
C-2145,CCC(=O)OC[N]1C=NC2=C1C(=O)N(C)C(=O)N2C,-2.3,19,51.0,6.39,-0.003711020755,0.0087897611549999,-0.027293649088,0,9,252.14252740000003,4,4,18,15.0,0.0,209.5564204201227,423.638,147.517511
B-4475,Nc1ncnc2n(ccc12)C3OC(CO)C(O)C3O,-1.9515,19,51.0,11.838,-0.002798037848,0.007762612429,-0.0294136371579999,0,8,252.14252740000003,4,4,19,13.0,0.001,197.8438982304021,393.875,143.803821
C-2492,CC1=CC(=C(C(=C1)C)[S](=O)(=O)NC2=NN=C(S2)[S](N)(=O)=O)C,-2.7,22,60.0,6.67,-0.010522269346,0.016198924963,-0.037373448035,0,15,348.3368897,4,4,18,11.0,0.0,278.5555214249763,458.347,204.379072
C-2138,CCOC(=O)OC[N]1C=NC2=C1C(=O)N(C)C(=O)N2C,-1.86,20,54.0,4.074,-0.003854728971,0.011950557926,-0.018761403784,0,13,268.1419323,4,5,14,14.0,0.0,236.23271186418324,388.175,149.386558
A-1792,CC(C)(C)c1ccc(C=O)cc1,-3.1309552760000003,12,30.0,7.022,-0.0002131042719999,0.002338588996,-0.006726311992,0,3,148.11749980000002,0,1,9,6.0,0.001,150.3596863586217,303.748,100.425243
A-4863,COc1ccc2CCCCc2c1,-2.747738524,12,30.0,4.158,-4.725293800000001e-05,-0.003908651756,-0.014623634245,0,1,148.11749980000002,0,1,13,8.0,0.0,143.69002508237645,295.362,105.237422
A-738,CC(C)(C)c1ccc(cc1)C(O)=O,-3.577962337,13,33.0,0.81,-0.001189631773,0.005923522802,-0.000572336296,0,3,164.1169047,0,2,14,10.0,0.0,167.76485695921238,332.917,107.397811
A-1726,CCC(=O)OCCc1ccccc1,-3.117444335,13,33.0,8.619,-0.002082990279,0.002560522004,-0.014129952992,0,4,164.1169047,0,2,13,8.0,0.0,152.326206051501,337.806,108.417193
B-1784,CCOC(=O)CCc1ccccc1,-2.9086,13,33.0,10.415,-0.002287965695,0.002513109013,-0.018530970487,0,4,164.1169047,0,2,13,7.0,0.0,152.49243734233812,337.987,108.425991
C-1155,CCCCC1=CC=C(C=C1)C(O)=O,-3.08,13,33.0,2.969,-0.001177375386,0.005705146397,0.000224925646,0,2,164.1169047,0,2,15,14.0,-0.001,156.73647136629285,351.13699999999994,109.002103