Name,SMILES,Solubility,AtomNum,DegFreedom,Dipole,Ghb,Gsasa,Gsolv,HNum,LP,MolWt,NNum,ONum,PiCenters,PiDeloc,Quadrupole,Volume,SASA,Polarizabilty
B-4554,CCCCCOC(=O)c1ccc(N)cc1,-3.3499,15,39.0,5.781000000000001,-0.00032934322,-0.000704644715,-0.0152592411189999,0,5,190.1343438,1,2,14,10.0,0.0,181.61707209090008,396.485,120.116193
C-1179,CCC(C)C1=C(OC(=O)NC)C=CC=C1,-2.53,15,39.0,4.746,-0.001321570387,-0.000161551348,-0.010211478014,0,6,190.1343438,1,2,11,13.0,0.0,178.07773170011734,354.569,125.551557
C-1748,CCC1=CC(=CC(=C1)OC(=O)NC)CC,-3.32,15,39.0,4.071000000000001,-0.001347089584,0.00087847526,-0.015289180372,0,6,190.1343438,1,2,10,11.0,0.0,175.90550037048908,374.281,125.508486
B-4229,CNC(=O)Oc1cc(C)cc(c1)C(C)C,-3.3575,15,39.0,3.694,-0.00143912458,0.000703988374,-0.010068041179,0,7,190.1343438,1,2,9,10.0,0.0,181.052676524658,368.28,122.613485
B-2903,CN(CCCCC(O)=O)[S](=O)(=O)c1ccccc1,-1.5585,18,48.0,30.159,-0.015016502828,0.017496229042,-0.1059888150819999,0,8,254.1979411,1,4,14,13.0,0.0,214.0040137709536,423.47,152.68299199999998
B-1912,CCOC(=O)C(S[P](=S)(OC)OC)c1ccccc1,-4.4643,19,51.0,18.201,-0.005931222464,0.00413869961,-0.055164842819,0,13,303.2297873,0,4,17,13.0,-0.001,256.76481678131944,466.446,195.185908
B-3624,CCCCCCc1ccccc1,-5.2551,12,30.0,4.466,-9.46789e-07,-0.00475546002,-0.007964729529,0,0,144.12883080000003,0,0,11,9.0,0.0,148.38624991989656,331.605,107.982615
A-193,C\1C\C=C/CC\C=C/CC/C=C1,-5.365156254,12,30.0,0.009,-2.5e-11,-0.00415770597,-0.003746064552,0,0,144.12883080000003,0,0,6,8.0,0.0,146.01481941027745,289.923,108.015
B-455,CCc1cc(CC)cc(CC)c1,-7.0641,12,30.0,0.01,-1.538499e-06,-0.004748517244,-0.013558402033,0,0,144.12883080000003,0,0,9,10.0,0.0,149.7736938928965,331.121,108.397028
C-173,CC1=C(C)C(=C(C)C(=C1C)C)C,-5.23,12,30.0,3.1860000000000004,-8.9611e-07,-0.0040527310359999,-0.006289740783,0,2,144.12883080000003,0,0,4,9.0,0.0,167.8732016868495,282.603,101.464291
A-5693,CC(C)c1ccc(cc1)C(C)C,-6.602799271,12,30.0,2.219,-1.078886e-06,-0.004574594131,-0.008415065392,0,2,144.12883080000003,0,0,6,9.0,0.0,155.2362021821699,318.993,106.793052
A-2259,CC(C)c1cccc(c1)C(C)C,-6.602799271,12,30.0,1.6230000000000002,-1.196905e-06,-0.004553648589,-0.008381966023,0,2,144.12883080000003,0,0,6,7.0,0.0,155.31866170115595,317.532,105.519769
A-2258,CC(C)c1ccccc1C(C)C,-6.602799271,12,30.0,5.667000000000001,-9.98782e-07,-0.004337475775,-0.008409049099,0,2,144.12883080000003,0,0,7,8.0,0.0,154.9548373564463,302.458,106.858186
B-1977,BrC1CCC(Br)C(Br)CCC(Br)C(Br)CCC1Br,-7.8728,16,48.0,0.01,-0.000300974469,-0.005440777289,-0.013206615528,0,18,623.5499975,0,0,15,6.0,0.001,269.66052298975467,506.521,236.273331
A-5537,BrC1CC(Br)CC(Br)CC(Br)CC(Br)CC(Br)C1,-6.990428200000001,15,48.0,2.827,-0.000514240019,-0.005478600895,-0.017409858841,0,18,623.5499975,0,0,11,7.0,0.0,277.5221756178737,520.689,233.034276
B-3304,COCC(C)N(C(=O)CCl)c1c(C)scc1C,-2.3614,16,45.0,1.715,-0.000253307888,0.004046379086,-0.000605188934,0,10,257.6520688,1,2,8,10.0,0.0,234.8709092912277,365.798,158.406183
B-3245,CCCCCCNC(=O)c1cccnc1,-2.5221,15,39.0,1.423,-0.002408702246,-0.001058596248,-0.018570815726,0,4,188.1416421,2,1,9,13.0,0.0,175.89323072326832,382.04,125.960466
A-412,CCN(CC)c1cccc(NC(C)=O)c1,-2.469378031,15,39.0,3.469,-0.00013042677,-0.002878083451,-0.01199286365,0,5,188.1416421,2,1,13,13.0,0.0,180.88405531822568,359.723,127.324484
F-422,CC(C)C1=CC=C(NC(=O)N(C)C)C=C1,-3.5,15,39.0,5.537000000000001,-0.002262339486,0.00031863073,-0.015832583171,0,6,188.1416421,2,1,15,12.0,0.0,184.02126126811004,372.264,124.530955
A-156,CC1(C)CC(CC(C)(CN=C=O)C1)N=C=O,-4.170824758999999,16,42.0,4.915,-0.002059567423,0.0068916351859999,-0.006558948896,0,2,204.1410471,2,2,19,13.0,0.0,209.5271528014225,389.915,131.451056
B-907,CNC(=O)Oc1cc(C)c(N(C)C)c(C)c1,-3.3469,16,42.0,6.973,-0.0012754173239999,0.000776411244,-0.0147086054569999,0,7,204.1410471,2,2,10,10.0,0.0,200.3112355261546,363.398,129.868536
B-4477,CCCC(C)C1(CC=C)C(=O)NC(=S)NC1=O,-3.4585,16,45.0,2.031,-0.000579699261,0.0017867387849999,-0.009521559501,0,6,236.2058345,1,2,14,14.0,0.0,220.8152122377176,439.111,153.830797
F-438,C=CCC1(C(C)CCC)C(=O)NC(=O)NC1=O,-2.36,17,45.0,2.551,-0.0021204593,0.005935916184,-0.010233292546,0,6,220.140452,2,3,14,16.0,0.0,211.5118318766931,420.393,138.935378
C-604,CCCCNC(=O)N[S](=O)(=O)C1=CC=C(C)C=C1,-3.17,18,48.0,17.279,-0.009754656301,0.007795753775,-0.051582303281,0,9,252.2052394,2,3,18,14.0,0.0,216.58779791457135,428.85,157.86118100000002
C-1333,CCC(=O)N(C)C1=CC=C(C=C1)[S](=O)(=O)N(C)C,-2.48,18,48.0,4.76,-0.003639959827,0.002700162357,-0.024584567723,0,7,252.2052394,2,3,17,14.0,0.0,233.46484564096136,415.661,160.11368000000002
B-2837,CC(O)(CO)C(O)[C@@]12NC(=O)[C@@](O)(NC1=O)C(=C)CCO2,-0.1971,21,57.0,6.979,-0.0049148575339999,0.025544884004,-0.011549094529,0,14,284.13807169999995,2,7,16,15.0,0.0,231.6831298944667,376.085,149.955704
B-2661,N[S](=O)(=O)c1ccc(NC2O[C@H](CO)[C@@H](O)[C@H](O)[C@@H]2O)cc1,-0.9801,22,60.0,14.911,-0.014437361627,0.026666461164,-0.06837276173,0,15,316.2028591,2,7,20,15.0,-0.001,237.2037194335909,446.672,170.83372
B-2964,CCCCC(O)CN(\N=C/c1oc(cc1)[N+]([O-])=O)C(N)=O,-3.5716,21,57.0,9.168,-0.005967200391,0.01200149318,-0.044846404456,0,10,280.1526682,4,5,20,17.0,0.0,237.1475036955724,413.30300000000005,160.39568400000002
C-927,CCCN(CCC)C1=C(C=C(C=C1[N+]([O-])=O)[S](N)(=O)=O)[N+]([O-])=O,-5.13,22,63.0,17.277,-0.0159918592099999,0.020707512972,-0.092732806327,0,15,328.2168606,3,6,21,18.0,0.0,260.13368489009497,463.105,187.621731
A-4659,CC(O)CC(C)(C)c1ccccc1,-2.147286724,13,33.0,5.294,-0.000307933806,0.001894373752,-0.007108336929,0,1,160.12823569999998,0,1,10,11.0,0.0,173.81355360150184,335.432,112.82553
A-5469,CC(CO)CC(C)c1ccccc1,-2.346916077,13,33.0,5.221,-0.000257796636,0.001992362622,-0.004834844417,0,3,160.12823569999998,0,1,9,12.0,0.0,160.08096534166393,328.617,108.994443
A-81,Cc1cccc(CC(C)(C)CO)c1,-2.826535469,13,33.0,0.613,-0.000632142255,0.002055710958,-0.0037086434509999,0,3,160.12823569999998,0,1,9,9.0,0.0,166.01500874534446,325.798,108.448775
A-4835,CC(CCO)CCc1ccccc1,-2.660025838,13,33.0,3.192,-0.000494637095,0.001869797985,-0.003917242275,0,2,160.12823569999998,0,1,10,10.0,0.0,156.7896780870237,338.601,111.27
A-519,CC1(C)C2CC=C(CCC=O)C1C2,-3.46576061,13,33.0,7.156000000000001,-0.000605769938,0.001892007178,-0.010917011283,0,2,160.12823569999998,0,1,10,8.0,0.0,163.69803389867172,337.269,112.996627
A-4930,Cc1cc(C)c(O)c(c1)C(C)(C)C,-3.171909199,13,33.0,0.924,-0.000857359323,3.5577804e-05,-0.0102938805909999,0,5,160.12823569999998,0,1,10,11.0,-0.001,171.29139810918716,326.078,112.494415
B-1667,O=C1CCCCC1C2=CCCCC2,-2.774,13,33.0,0.947,-0.000132870067,-0.0014446072339999,-0.002206279357,0,1,160.12823569999998,0,1,7,11.0,0.0,148.59305491961584,286.447,111.540179
A-4146,CC(C)(O)c1cccc(c1)C(C)(C)O,-1.863533046,14,36.0,1.5219999999999998,-0.000255484051,0.002082704145,-0.005763276019,0,4,176.1276406,0,2,6,7.0,-0.001,172.69074489046432,333.445,109.81261
B-4292,CCCCCCc1ccc(O)cc1O,-2.5895,14,36.0,3.825,-0.003202399421,0.007267330758,-0.015434084572,0,5,176.1276406,0,2,7,10.0,0.0,163.2901036458219,360.347,116.899547
A-4953,CCOC(=O)C1=C(C)C=CCC1(C)C,-3.411619706,14,36.0,10.337,-0.000542101799,-0.000384279761,-0.02107772773,0,3,176.1276406,0,2,10,13.0,0.0,178.9973585257844,329.374,119.529515
A-284,CC(=O)OC1CC2CC1C3CCCC23,-3.338049828,14,36.0,3.152,-0.000458340776,0.000994982493,-0.004873681156,0,5,176.1276406,0,2,8,11.0,-0.001,154.7086813322094,310.773,103.650509
A-129,CCCCCC/C=C/C1CC(=O)OC1=O,-4.021753515,15,39.0,2.869,-0.00314868335,0.009281849129,-0.014457880992,0,5,192.1270456,0,3,6,11.0,0.001,170.93974307285924,386.757,123.022575
A-4600,CCCCOCc1ccc(O)c(OC)c1,-2.094896806,15,39.0,4.187,-0.002672128454,0.000741709244,-0.043705524686,0,4,192.1270456,0,3,10,12.0,-0.001,174.02785337055653,378.969,125.207782
A-620,CC(CCOC(=O)C=C)CCOC(=O)C=C,-2.621433551,16,42.0,4.3180000000000005,-0.000810794275,0.006602786052,-0.005143722848,0,7,208.1264505,0,4,14,13.0,0.0,201.80283575928323,436.943,129.995778
A-1270,CC(=C)C(=O)OCCCCOC(=O)C(C)=C,-2.969024542,16,42.0,2.124,-0.004124956921,0.008755525466,-0.0124963824809999,0,8,208.1264505,0,4,12,15.0,-0.001,193.55933477689828,414.391,126.51553
F-182,C=CCSC(CCC(SCC=C)C(=O)O)C(=O)O,-2.2,18,48.0,9.593,-0.001360429623,0.0135875101129999,-0.002359289831,0,8,272.2560253,0,4,22,17.0,0.0,243.8047897128744,446.249,169.619628
B-2908,CC(C)OC(=O)C(C(=O)OC(C)C)=C1SCCS1,-3.7306,17,48.0,9.985,-0.0027773452149999,0.005439258823,-0.029602714624,0,10,272.2560253,0,4,15,12.0,-0.001,228.18904434253795,406.504,166.315356
A-3536,CC(COCC(C)OC(=O)C=C)OC(=O)C=C,-1.668298088,17,45.0,2.7230000000000003,-0.001981602487,0.006014359725,-0.010566670446,0,6,224.1258554,0,5,17,16.0,0.0,202.77482644088056,407.36,133.373176
A-4175,C=CCOC(=O)OCCOCCOC(=O)OCC=C,-2.06526472,19,51.0,1.367,-0.003061733639,0.013132893069,-0.00871784963,0,12,256.1246652,0,7,18,13.0,0.001,215.7314604615032,473.404,144.809457
B-4202,CN[P](=O)(OC)Oc1ccc(cc1Cl)C(C)(C)C,-3.1639,17,48.0,10.183,-0.003633456209,0.001386496889,-0.021468230462,0,11,272.5604484,1,3,14,12.0,0.0,235.3763298335792,425.663,166.597556
F-141,CC(C)CC(C(=O)O)N(CCC#N)CCC#N,-1.14,17,45.0,1.5119999999999998,-0.000732797074,-0.003129846516,-0.023633135055,0,6,218.1477503,3,2,21,15.0,0.0,209.4580339560264,428.567,137.985343
A-3720,OCCNc1ccc(cc1[N+]([O-])=O)N(CCO)CCO,-1.7953855719999998,20,54.0,7.986000000000001,-0.00611066326,0.020716711089,-0.025684800519,0,7,266.145965,3,5,19,20.0,0.0,213.59677624087075,412.019,153.016721
B-1586,CN(C)[P](=O)(N(C)C)n1nc(nc1N)c2ccccc2,-3.0709,20,54.0,1.228,-0.003826879799,-0.001994775315,-0.012432288799,0,7,275.142217,6,1,19,15.0,0.0,239.3280187909949,417.043,174.335288
B-2800,CCCS[P](=S)(OCC)Oc1ccc(SC)cc1,-6.0171,17,48.0,11.104,-0.001439274818,0.004449845842,-0.012590211871,0,11,303.2957649,0,2,12,15.0,0.0,259.9154775724777,455.656,198.474417
F-354,CC(=O)CC(C)=NCCN=C(C)CC(C)=O,-2.83,16,42.0,0.45,-0.003186832925,0.006481611337,-0.015796343172,0,2,204.1410471,2,2,12,11.0,-0.001,220.42628321714363,434.158,131.75988700000002
C-1689,CCCCCCC1(CC)C(=O)NC(=S)NC1=O,-4.08,16,45.0,13.222,-0.003490973865,0.0084469058589999,-0.0290169776949999,0,6,236.2058345,1,2,12,14.0,0.0,218.2158946662609,441.481,151.912995
C-188,CCCCCCC1(CC)C(=O)NC(=O)NC1=O,-3.05,17,45.0,21.575,-0.005686620267,0.009915748081,-0.055608712769,0,5,220.140452,2,3,14,17.0,0.0,204.7775260145228,419.108,136.868675
B-2498,CCCCC1(CCCC)C(=O)NC(=O)NC1=O,-2.8756,17,45.0,2.28,-0.001936289553,0.003845919382,-0.0122457439369999,0,6,220.140452,2,3,14,11.0,0.0,201.29183148755456,417.343,138.933444
F-478,CCCC(C)CC1(CCO)C(=O)NC(=S)NC1=O,-3.09,17,48.0,12.566,-0.003442979827,0.014172803404,-0.0241053490109999,0,7,252.2052394,1,3,18,15.0,0.0,226.9028497812285,431.6230000000001,156.144306
F-479,CCC(CC)CC1(CCO)C(=O)NC(=S)NC1=O,-3.14,17,48.0,13.289,-0.0033376284049999,0.013105750676,-0.019137978937,0,6,252.2052394,1,3,19,14.0,0.0,205.35778546375852,435.511,156.748868
A-5919,S=C(SSSSSSC(=S)N1CCCCC1)N2CCCCC2,-7.6317322060000015,21,60.0,8.089,-0.000324605109,0.007984514989,0.0029415355829999,0,16,428.6605365,1,0,11,10.0,0.0,331.64293300683767,543.8969999999999,280.109629
B-2921,CN(C)C1=NC(=O)N(C2CCCCC2)C(=O)N1C,-0.8834,18,48.0,10.626,-0.001455579843,0.000504646396,-0.01711734715,0,6,232.1544535,4,2,12,11.0,0.0,210.73178244769957,343.795,142.78241599999998
B-3018,CSC1=NN=C(C(=O)N1\N=C\C(C)C)C(C)(C)C,-4.4288,18,48.0,4.539,-0.0014185399479999,-0.000521111359,-0.012930061329,0,9,248.219836,4,1,10,11.0,0.0,242.8980490228981,379.392,157.11338700000002
A-640,CC(C)=CCC\C(C)=C/CCC=O,-3.538303545,13,33.0,4.267,-0.001007410828,0.001384552521,-0.008425755367,0,3,160.12823569999998,0,1,4,12.0,0.0,173.02233719016965,374.003,113.625309
A-1167,CC(CC/C=C(C)/CCC=O)C=C,-3.79357605,13,33.0,8.177,-0.000451802386,0.001452671022,-0.010232156047,0,4,160.12823569999998,0,1,8,11.0,0.0,166.80859593877025,367.012,113.197073
B-2006,OC[C@H]1OC2(COC3(CO2)O[C@H](CO)[C@@H](O)[C@@H]3O)[C@@H](O)[C@@H]1O,-0.0058,22,60.0,4.731,-0.005425081136,0.032763023976,-0.008676421561,0,18,304.12288,0,10,18,15.0,-0.001,213.74090168177432,418.081,151.206904
A-1165,CC(=O)OC/C=C(C)/CCC=C(C)C,-3.830500177,14,36.0,6.593999999999999,-0.001004657224,0.00124594176,-0.016119080285,0,4,176.1276406,0,2,9,13.0,0.0,189.5884081771972,395.231,118.951205
A-83,CC(=O)OC\C=C(C)/CCC=C(C)C,-3.754953216,14,36.0,2.303,-0.000968129716,0.001472662866,-0.013652052537,0,6,176.1276406,0,2,9,13.0,0.0,178.70135897172855,380.903,117.789092
A-5027,C=CCOC(=O)CCC1CCCCC1,-4.062449254,14,36.0,6.419,-0.000258551975,0.001959084898,-0.0106807976949999,0,3,176.1276406,0,2,10,12.0,0.0,170.17191574939034,382.191,118.47362
A-555,CC\C=C/CCOC(=O)C\C=C/CC,-4.509709484,14,36.0,5.267,-0.00237578234,0.001670757045,-0.016836846231,0,5,176.1276406,0,2,8,12.0,0.001,172.11857358656357,397.382,119.91029
A-999,C\C=C\OC1CCC(CC1)O\C=C\C,-3.903732091,14,36.0,4.833,-2.722949e-06,-0.000992927514,-0.00937979589,0,4,176.1276406,0,2,5,8.0,-0.001,168.11589761138896,363.447,120.23483600000002
A-1549,CC1CC(CC(C)(C)C1)OC(=O)C=C,-4.030447085,14,36.0,2.633,-0.000280475038,0.000887928781,-0.016752936328,0,5,176.1276406,0,2,8,10.0,0.0,179.39260186782468,336.834,116.144408
A-709,CC(=O)OC(C)(C)CCCC(=C)C=C,-3.597416499,14,36.0,2.3080000000000003,-0.000380798039,-0.000234841668,-0.010930727339,0,5,176.1276406,0,2,6,9.0,0.001,186.53177332756604,377.335,119.271233
A-1088,CC(C)=CCCC(C)(OC(C)=O)C=C,-3.81577692,14,36.0,2.68,-0.000586253479,-0.000810243898,-0.013889313325,0,6,176.1276406,0,2,4,11.0,0.0,188.788312731763,362.546,116.69308999999998
A-1116,CCOC(=O)C1C(C=C(C)C)C1(C)C,-4.765268273999999,14,36.0,6.811,-0.001733382931,-0.0001630371709999,-0.023132801893,0,5,176.1276406,0,2,9,10.0,0.0,182.12812588953167,380.64,119.298628
A-1647,CC(=O)OC1C(C)(C)C2CCC1(C)C2,-3.874596884,14,36.0,1.361,-8.1649823e-05,-0.00071871437,-0.0070710684569999,0,6,176.1276406,0,2,7,8.0,0.001,179.44591284353683,317.596,112.776216
C-1594,CC(=O)OC1CC2CCC1(C)C2(C)C,-3.93,14,36.0,12.713,-0.000460903863,-0.000702688327,-0.024444866277,0,4,176.1276406,0,2,9,10.0,0.0,183.07907281289465,323.596,117.649209
A-499,CC(=O)O[C@@H]1C[C@@H]2CC[C@@]1(C)C2(C)C,-3.496323842,14,36.0,12.720999999999998,-0.000460556367,-0.000707116879,-0.024488834857,0,4,176.1276406,0,2,9,10.0,0.0,183.08125283146015,323.547,117.648612
A-624,CC(=O)OC1CCC2CCCCC2C1,-3.560504415,14,36.0,7.505,-0.000606658228,0.000771898763,-0.007265324302,0,5,176.1276406,0,2,7,8.0,0.0,164.8624998624914,312.691,118.086856
A-1311,CC(=O)OC(C)(C)C1CCC(=CC1)C,-3.931170339,14,36.0,8.214,-0.000546453781,-0.0001885987299999,-0.0153531818959999,0,4,176.1276406,0,2,12,11.0,-0.001,182.92444025133392,327.001,118.111974
A-4478,OCC1CCC2C3CC(CC3CO)C12,-1.25150549,14,36.0,1.819,-0.000781615031,0.008812792236,0.00296864474,0,4,176.1276406,0,2,10,8.0,0.0,150.6605161802593,320.789,107.219412
A-263,CCCCC/C=C/CC(CC(O)=O)C(O)=O,-2.404240574,16,42.0,1.959,-0.003020782096,0.01261634009,-0.007684015374,0,6,208.1264505,0,4,12,16.0,0.0,190.1878137429331,413.471,128.44925
A-5426,CCOC(=O)C1CCC(CC1)C(=O)OCC,-2.251273114,16,42.0,2.88,-0.003483622847,0.007368332145,-0.017098261175,0,6,208.1264505,0,4,14,13.0,0.0,182.43402977815867,385.876,126.71971299999998
A-1844,CCCCOC(=O)\C=C\C(=O)OCCCC,-4.313551537,16,42.0,3.312,-0.0034717167839999,0.008655018443,-0.010175374874,0,6,208.1264505,0,4,21,11.0,0.0,188.34717336339577,427.449,129.495913
A-4900,CCCCOC(=O)\C=C/C(=O)OCCCC,-3.128034162,16,42.0,2.977,-0.003473212059,0.008655977442,-0.010225565604,0,6,208.1264505,0,4,20,9.0,0.0,188.34485301425235,427.423,129.495802
B-226,CCOC(=O)CC(O)(CC(=O)OCC)C(=O)OCC,-0.6285,19,51.0,3.875,-0.003952044915,0.015825384811,-0.011849637457,0,11,256.1246652,0,7,23,14.0,-0.001,220.9662082845485,448.526,144.711383
F-184,CC(C)CC(Br)C(=O)NC(C)C(=O)NC(C)C(=O)O,-1.43,19,51.0,5.041,-0.004011163542,0.012040390101,-0.018007747767,0,11,316.0433847,2,4,21,16.0,0.001,250.39977209917183,464.003,164.760776
B-4287,CCO[P](=S)(OCC)Oc1cc(C)nc(n1)C(C)C,-3.8813,19,51.0,8.98,-0.004648322352,0.002179219691,-0.019585141786,0,13,283.1790014,2,3,13,10.0,0.0,251.55443445751771,412.326,177.46016200000005
B-3423,CCCc1nc(N)c(CC)c(CCC)n1,-2.5132,15,39.0,4.644,-4.645598e-06,-0.007340947643,-0.0140383614519999,0,4,186.1489404,3,0,11,12.0,0.0,186.67992316457284,371.253,131.242005
C-2532,CCNC1CN(CCCOC)[S](=O)(=O)C2=C1C=C(S2)[S](N)(=O)=O,-2.95,22,63.0,21.241,-0.0142686719739999,0.014509812719,-0.063804884833,0,16,362.3403273,3,5,15,14.0,0.0,277.5041867951936,494.184,214.425155
F-894,O=C(C1CCCC1)N(O)C1CCCCC1,-3.16,15,39.0,8.029,-0.003085268653,0.005498303899,-0.01990396983,0,6,190.1343438,1,2,11,10.0,0.0,170.40772403393552,317.75,118.169755
D-956,CCCCCCN1CC(CC1=O)C(=O)OC,-1.246,16,42.0,10.744000000000002,-0.002362080196,0.0064512507239999,-0.016665369759,0,7,206.1337488,1,3,13,11.0,-0.001,189.13395948941127,419.638,131.366153
F-122,CCC1(CC)NC(=O)C(CC)(CC)NC1=O,-2.31,16,42.0,0.416,-0.000687629774,0.003943956887,-0.007378582396,0,2,204.1410471,2,2,20,13.0,-0.001,200.04178848093804,372.528,136.105469
B-2925,COC(CN(C)C(=O)Nc1sc(nn1)C(C)(C)C)OC,-1.8678,19,54.0,14.981,-0.0032774585119999,0.0022714066329999,-0.066488608169,0,11,280.2186458,4,3,16,13.0,0.0,262.07245042623646,459.439,170.839194
A-649,CC(=O)CC(C)(C)C1CCCCC1,-3.548153643,13,33.0,5.372999999999999,-0.000417530247,0.00191697578,-0.0064758643909999,0,2,160.12823569999998,0,1,8,11.0,0.0,174.35150707887948,334.611,111.362553
A-1052,CCCCCCCC1CCCC1=O,-3.769441651,13,33.0,2.035,-0.001551803613,0.001049273149,-0.012062795985,0,4,160.12823569999998,0,1,4,12.0,0.0,156.8200524829516,356.701,112.280835
A-569,CC(C)C(=O)C(C)(C)CC=C(C)C,-3.489215864,13,33.0,2.63,-0.001999242134,0.000345265645,-0.016135426204,0,4,160.12823569999998,0,1,7,10.0,0.0,185.7181582510612,357.78,114.235203
A-1234,O=C1CCCCCCCCCCC1,-3.845829996,13,33.0,8.958,-0.003063663827,0.002153368694,-0.018391974688,0,2,160.12823569999998,0,1,11,11.0,-0.001,152.69065954131173,301.97,112.083648
B-1242,OCC1OC(OCC2OC(O)C(O)C(O)C2O)C(O)C(O)C1O,0.4656,23,63.0,6.586,-0.008122072119,0.041369268885,-0.027076187469,0,20,320.1222849,0,11,21,16.0,0.0,224.4761321353628,449.392,159.478487
B-140,OCC1OC(OC2C(O)C(O)C(O)OC2CO)C(O)C(O)C1O,0.3577,23,63.0,19.647,-0.007265419961,0.0379146808899999,-0.061451035346,0,17,320.1222849,0,11,19,17.0,0.0,223.5212465877621,428.814,159.527682
B-2198,OC[C@H]1O[C@@H](O[C@H]2[C@H](O)[C@@H](O)[C@H](O)O[C@@H]2CO)[C@H](O)[C@@H](O)[C@H]1O,-0.8167,23,63.0,11.8,-0.007996015643,0.038043239206,-0.046325456359,0,18,320.1222849,0,11,21,16.0,0.0,223.8885323043839,416.219,159.476296
B-2087,OC[C@H]1O[C@@H](O[C@@H]2[C@@H](CO)O[C@](O)(CO)[C@H]2O)[C@H](O)[C@@H](O)[C@H]1O,0.3487,23,63.0,8.562999999999999,-0.007355207844,0.038156338681,-0.02201813105,0,17,320.1222849,0,11,20,17.0,0.0,226.42472191462045,424.117,156.995952
G-1066,OCC2OC(OC1(CO)OC(CO)C(O)C1O)C(O)C(O)C2O ,0.79,23,63.0,16.4,-0.007657517351,0.039125698714,-0.0424544948819999,0,17,320.1222849,0,11,21,18.0,0.0,224.969059402296,447.664,157.90221599999998
B-65,OC[C@H]1O[C@H](O[C@]2(CO)O[C@H](CO)[C@@H](O)[C@@H]2O)[C@H](O)[C@@H](O)[C@@H]1O,0.7878,23,63.0,17.588,-0.007691334002,0.039263049029,-0.046616164319,0,18,320.1222849,0,11,20,16.0,0.0,224.8652397658794,445.858,157.89981799999998
A-1668,CC(CCOC(C)=O)CCC=C(C)C,-4.09593873,14,36.0,5.405,-0.001223950028,0.001633142551,-0.013441857363,0,4,176.1276406,0,2,15,13.0,0.0,180.37483794042183,372.849,116.17164
A-2083,COC(=O)CCCCCCCCC=C,-5.397515352,14,36.0,7.022,-0.000914219614,0.002371000101,-0.008910746282,0,4,176.1276406,0,2,6,7.0,0.0,176.8179350641579,419.518,120.239182
A-1305,CCCC(=O)OC(C)C1CCCCC1,-3.920758898,14,36.0,5.763999999999999,-0.002431110715,0.002270359225,-0.01215977881,0,5,176.1276406,0,2,11,10.0,-0.001,172.89280252369565,362.24300000000005,117.369174
A-1750,CCC(=O)OC1CCC(CC1)C(C)C,-4.173484214,14,36.0,4.081,-0.000212965417,0.00059695426,-0.010262347902,0,4,176.1276406,0,2,9,9.0,0.0,170.92667111061957,326.176,116.216671