Name,SMILES,Solubility,AtomNum,DegFreedom,Dipole,Ghb,Gsasa,Gsolv,HNum,LP,MolWt,NNum,ONum,PiCenters,PiDeloc,Quadrupole,Volume,SASA,Polarizabilty
A-4165,CCCCCCCCN(C)C,-5.465370192999999,11,27.0,3.0,-2.237641e-06,-0.004904392536,-0.013253749629,0,3,134.1140622,1,0,3,7.0,-0.001,144.57745976807237,335.99,98.393131
A-3754,CCCCN(CCO)CCCC,-1.636738571,12,30.0,1.395,-0.001241013206,0.001664431616,-0.017569456053,0,3,150.11346709999998,1,1,13,8.0,0.0,149.23873528917483,351.351,104.440058
B-2289,CCCC[P](=O)(CCCC)OCC,-1.2005,13,33.0,3.341,-0.00357913916,0.001384078424,-0.009435990412,0,3,183.07993080000003,0,2,18,10.0,0.0,169.97521429020625,385.543,126.26952
B-3344,CCO[P](=O)(SC(C)CC)SC(C)CC,-3.0376,14,39.0,9.447,-0.000361671688,0.001036594987,-0.01574445004,0,11,247.2095057,0,2,11,8.0,-0.001,218.1345144376021,388.9980000000001,164.265224
B-2474,CCCCCC[P](=O)(OCC)OCC,-2.5687,14,36.0,4.386,-0.005837581838,0.00297751625,-0.013251390671,0,4,199.0793358,0,3,17,13.0,0.0,178.08057285691277,395.462,131.33297199999998
B-1867,CCCCO[P](=O)(CC)OCCCC,-1.5687,14,36.0,2.167,-0.00676589049,0.0029426767119999,-0.01451455539,0,5,199.0793358,0,3,16,12.0,-0.001,178.09305301842795,396.497,131.469087
B-2293,CCCCO[P](=O)(OCC)OCCCC,-1.8456,15,39.0,2.637,-0.01229440619,0.004014935659,-0.020386323534,0,6,215.0787407,0,4,20,13.0,0.0,186.14745539846905,403.901,136.339429
A-5133,NCCCCCCCCCCN,1.5277010030000002,12,30.0,0.003,-1.090158e-05,-0.008950037079,-0.019080740125,0,2,148.1207654,2,0,6,7.0,0.0,148.8973057393061,354.392,103.064598
C-1541,CCC(CO)NCCNC(CC)CO,0.57,14,36.0,6.245,-0.001637082541,0.006533920304,-0.0182087723429999,0,4,180.1195753,2,2,10,10.0,0.0,166.37869250884103,376.903,115.063782
A-1354,CCO[Si](CC(C)C)(OCC)OCC,-3.016846171,14,36.0,2.924,-0.00011752251,-0.003135374484,-0.009250143112,0,5,196.1910725,0,3,16,9.0,0.001,191.2082302567908,395.217,133.10708
A-3653,CN(C)CCCNCCCN(C)C,0.355850804,13,33.0,0.961,-3.849932e-06,-0.006201600589,-0.02287014852,0,3,162.1274686,3,0,11,13.0,0.001,173.49118646540742,375.475,112.490846
B-2636,O[P](O)(=O)CN(CCCCCCN(C[P](O)(O)=O)C[P](O)(O)=O)C[P](O)(O)=O,-1.5161,27,78.0,95.231,-0.926053634334,0.0576744996299999,-1.538750390612,0,27,464.0086725,2,11,26,16.0,-0.001,355.81749641514915,610.8430000000001,260.159938
A-5234,NCCNCCNCCNCCNCCN,0.332778733,16,42.0,1.733,-1.5830903e-05,-0.011750018011,-0.029919257988,0,2,204.1475783,6,0,14,13.0,0.0,187.8212809592496,432.69,131.036016
A-3195,O=C1OC(=O)c2cc3C(=O)OC(=O)c3cc12,-1.406221724,16,42.0,0.0,-0.00534357287,0.025067261724,-0.004506546903,0,12,216.1037885,0,6,8,11.0,0.001,153.41255975273614,324.784,117.128221
B-815,C[Si](C)(C)O[Si](C)(C)O[Si](C)(C)O[Si](C)(C)C,-7.6637,17,45.0,14.073,-0.000665399287,0.002150610208,-0.02144173457,0,7,280.4475686,0,3,14,9.0,0.0,330.8876440969048,428.456,208.481504
A-2605,C[Si](C)(C)O[Si](C)(O[Si](C)(C)C)O[Si](C)(C)C,-5.936026172,17,45.0,6.912000000000001,-0.0004332401079999,0.002531358907,-0.0150703488739999,0,8,280.4475686,0,3,13,10.0,-0.001,341.29298560505737,436.138,206.656595
B-1126,C[Si]1(C)O[Si](C)(C)O[Si](C)(C)O[Si](C)(C)O[Si](C)(C)O1,-7.3387,20,54.0,3.504,-9.2879879e-05,-0.0007499355499999,-0.037357818633,0,7,340.5318772,0,5,22,18.0,0.0,360.7880990557649,555.054,274.964918
B-2880,Fc1ccc(cc1)N2C(=O)C(=C(Cl)C2=O)Cl,-4.6442,15,42.0,3.817,-0.0019851946129999,0.009843578592,-0.005457146517,0,13,256.0171504,1,2,9,9.0,0.0,182.54075086983215,363.407,138.27276
A-1453,ClC1=C(Cl)C(=O)c2ccccc2C1=O,-5.0237764060000005,14,36.0,2.295,-0.002145239378,0.00747059294,-0.00916790412,0,10,223.012044,0,2,9,9.0,0.0,165.5875988525789,323.654,128.134535
B-2968,Clc1cc(Cl)c2cc(Cl)cc(Cl)c2c1,-7.8228,13,36.0,0.0,-2.35699e-07,0.0024174957199999,-0.001739664807,0,12,261.91910930000006,0,0,4,7.0,0.0,186.3898226381468,379.772,147.165721
C-2043,ClC1=CC2=C(C(=CC=C2Cl)Cl)C(=C1)Cl,-7.51,13,36.0,2.922,-1.9464000000000005e-07,0.0017922712609999,-0.003502656695,0,12,261.91910930000006,0,0,4,7.0,0.001,186.52485591868228,362.997,147.70334
B-3003,Clc1ccc(Cl)c2cc(Cl)c(Cl)cc12,-7.5163,12,36.0,0.405,-1.58276e-07,0.001697347666,-0.001609461704,0,12,261.91910930000006,0,0,2,6.0,0.001,186.83813625902343,362.848,148.50018
B-2967,Clc1cccc2c(Cl)c(Cl)c(Cl)cc12,-7.8566,12,36.0,2.58,-1.58955e-07,0.00131794286,-0.003539397724,0,12,261.91910930000006,0,0,2,7.0,0.001,186.70901664341744,355.811,148.43514199999998
B-2572,Clc1c(Cl)c(Cl)c2ccccc2c1Cl,-7.7954,14,36.0,2.226,-1.71663e-07,0.000897844925,-0.003413104442,0,12,261.91910930000006,0,0,3,6.0,0.0,186.55564050276112,346.966,148.441577
A-5602,Brc1c(Br)c(Br)c(COC(=O)C=C)c(Br)c1Br,-7.806077004,16,45.0,1.61,-0.000435566382,0.001134047515,-0.008678012018,0,18,551.6238077,0,2,12,8.0,0.0,246.9996246489208,484.843,208.112418
C-2050,OC(=O)C1=C(Cl)C=CC2=C1N=CC(=C2)Cl,-3.57,15,39.0,10.854,-0.004283071808,0.008585687,-0.030529095741,0,10,237.0187472,1,2,10,9.0,0.0,175.58468292801032,349.464,134.686676
B-3001,Clc1ccc2cc(Cl)cc(Cl)c2c1,-6.5557,12,33.0,3.19,-2.06127e-07,0.000911369164,-0.002996731744,0,9,226.4661717,0,0,5,6.0,0.0,169.03988321379157,347.583,132.911887
B-3002,Clc1ccc2cc(Cl)c(Cl)cc2c1,-7.1419,12,33.0,1.18,-1.30177e-07,0.0004039227919999,-0.003857966594,0,9,226.4661717,0,0,5,8.0,0.0,175.00473935755332,344.94800000000004,134.149225
B-210,ClC1C=CC2C1C3(Cl)C(=C(Cl)C2(Cl)C3(Cl)Cl)Cl,-6.3168,14,45.0,2.5780000000000003,-1.32078e-07,0.003668768389,-0.002123706177,0,22,368.2779221,0,0,6,4.0,0.0,236.20407474605983,410.691,183.671127
B-1585,ClC1C2OC2C3C1C4(Cl)C(=C(Cl)C3(Cl)C4(Cl)Cl)Cl,-6.2893,15,48.0,1.4580000000000002,-0.0001486723159999,0.00813429953,0.000756363025,0,23,384.277327,0,1,6,4.0,0.001,236.40185409366924,418.982,190.961447
C-2167,[O-][N+](=O)C1=C(Cl)C2=C(C=CC=C2)C(=C1)[N+]([O-])=O,-5.4,17,45.0,9.048,-0.00666604437,0.0165651006789999,-0.022151676813,0,12,247.5713227,2,4,11,12.0,-0.001,182.86333229661807,346.48800000000006,137.845351
F-295,O=C1OC(C2=CC=C(Br)C=C2)C(Br)C1=O,-3.05,14,39.0,3.364,-0.003389416464,0.009894002964,-0.0149601271139999,0,10,327.9126293,0,3,8,8.0,0.0,180.6777370368805,360.565,146.533554
B-1794,Clc1cccc2cccc(Cl)c12,-5.7963,11,30.0,3.102,-2.46115e-07,-0.0012387530319999,-0.004945161691,0,6,191.0132342,0,0,3,9.0,0.0,152.21667350748433,298.962,118.13153
C-471,ClC1=CC2=C(C=CC=C2Cl)C=C1,-5.92,11,30.0,1.26,-1.13413e-07,-0.000689197195,-0.003354973812,0,6,191.0132342,0,0,5,7.0,0.0,157.04671901784064,320.34,119.399966
B-1815,Clc1ccc2ccc(Cl)cc2c1,-5.9217,12,30.0,4.212,-1.48315e-07,-0.000552465115,-0.004581803774,0,6,191.0132342,0,0,7,9.0,0.0,157.8788912023163,320.401,118.860287
C-477,ClC1=CC=CC2=C1C=CC=C2Cl,-5.7,12,30.0,0.0,-2.3712e-07,-0.000855270677,-0.002567974776,0,6,191.0132342,0,0,4,8.0,0.0,151.37927009206052,304.17900000000003,118.823055
B-1725,Clc1ccc(Cl)c2ccccc12,-5.3576,12,30.0,1.144,-1.65062e-07,-0.000791119737,-0.002364979621,0,6,191.0132342,0,0,5,8.0,0.0,151.18388626299503,304.813,118.812412
C-468,ClC1=CC2=C(C=CC=C2)C=C1Cl,-5.36,12,30.0,2.841,-9.4201e-08,-0.001148885914,-0.004607322852,0,6,191.0132342,0,0,5,7.0,-0.001,157.53167186046278,310.925,119.428923
B-1793,Clc1ccc2ccccc2c1Cl,-6.1611,12,30.0,1.7,-1.5991199999999998e-07,-0.001104829692,-0.002994641467,0,6,191.0132342,0,0,4,6.0,0.0,151.35840344550144,302.066,118.84346200000002
B-2030,Clc1cc(Cl)nc(n1)c2ccccc2,-4.9544,14,36.0,0.7070000000000001,-1.833264e-06,-0.001903886976,-0.002993750734,0,8,219.0266406,2,0,4,10.0,0.0,172.16449749321063,350.51800000000003,131.923697
B-1707,ClC1=C(Cl)C(=O)N(N=C1)c2ccccc2,-3.3822,15,39.0,5.757000000000001,-6.4580773e-05,-0.000369882877,-0.008735178675,0,8,235.0260455,2,1,8,7.0,-0.001,181.2834472391228,340.974,137.20763200000002
B-1732,COC(=O)c1c(Cl)c(Cl)c(c(Cl)c1Cl)C(=O)OC,-5.8221,16,48.0,0.838,-0.000509949787,0.009500744785,2.738991e-06,0,18,325.91672900000003,0,4,16,12.0,0.0,240.1160341247845,462.582,170.429164
E-848,ClC1=C(Cl)C(Cl)(C2(Cl)Cl)C3CC=CC3C12Cl,-5.64,16,42.0,1.378,-4.1378e-08,0.002535824058,-0.002955513124,0,18,332.8249845,0,0,7,5.0,0.0,218.91450178609367,386.757,170.700126
E-849,OC1C=CC2C1C3(Cl)C(=C(Cl)C2(Cl)C3(Cl)Cl)Cl,-5.46,14,45.0,2.905,-0.001070164516,0.007840959725,-0.004638734562,0,21,348.8243894,0,1,6,5.0,-0.001,226.16106937329928,392.281,173.363994
B-70,ClC1CC2C(C1Cl)C3(Cl)C(=C(Cl)C2(Cl)C3(Cl)Cl)Cl,-6.8644,15,48.0,1.347,-3.2055e-08,0.004786206613,-0.002449628065,0,24,403.7308596,0,0,5,4.0,0.0,253.31169014032295,434.906,199.657244
C-1407,[O-][N+]1=NC(=NC2=C1C=C(Cl)C=C2)[N]3C=CN=C3,-3.63,16,45.0,3.24,-0.0021145705179999,0.0001723217429999,-0.011740643067,0,8,241.5932175,5,1,5,12.0,0.0,186.45135072756415,367.43,142.56315
B-3286,OC(=O)c1ccc(c2cccnc12)[N+]([O-])=O,-3.1656,16,42.0,1.692,-0.004402817954,0.014951975899,-0.006423027393,0,8,212.1183851,2,4,12,10.0,-0.001,166.9930907718177,318.702,119.473781
F-763,C1=CC2=C(C=C1S(=O)(=O)O)C(=C(C=C2[N+](=O)[O-])[N+](=O)[O-])O,-2.54,21,57.0,8.155,-0.016264206776,0.032989443098,-0.0492376220689999,0,18,308.1807922,2,8,8,10.0,0.0,218.3311482309801,389.164,161.04478600000002
B-1878,Cc1ccc2nc3SC(=O)Sc3nc2c1,-5.3698,14,39.0,0.976,-0.001225036545,0.005095108323,0.001428196637,0,9,228.2497452,2,1,4,7.0,0.0,179.37927829885112,340.75,146.575429
B-4333,OC(=O)C(=O)c1c(cccc1C(O)=O)C(O)=O,-0.4541,17,45.0,8.992,-0.005470501378,0.023916692999,-0.017722705664,0,9,232.1031934,0,7,19,14.0,0.001,181.92828222439067,343.746,122.705032
D-1433,OC(=O)c1cc(C(O)=O)c(cc1C(O)=O)C(O)=O,-1.259,18,48.0,0.011,-0.0034468234639999,0.026718211193,0.015308876539,0,8,248.1025984,0,8,30,18.0,0.0,208.78615740074665,396.48800000000006,130.19755700000002
B-1226,Brc1ccc2ccccc2c1,-4.4001,11,27.0,4.2410000000000005,-0.000163808137,-0.003886374428,-0.006052587955,0,3,200.0108868,0,0,8,8.0,0.0,141.9187735938374,295.743,111.199838
B-343,Brc1cccc2ccccc12,-4.3468,11,27.0,3.198,-6.4424049e-05,-0.00374996642,-0.004589593798,0,3,200.0108868,0,0,6,8.0,-0.001,136.5446851155504,283.896,110.649782
B-2683,BrC1=CNC(=NC1=O)c2ccccc2,-3.4792,14,36.0,5.052,-0.001516667221,-0.000590576414,-0.01232888525,0,5,244.0236981,2,1,11,12.0,0.0,164.00772060409182,336.991,128.20362
B-4000,Clc1ccc2ccccc2c1,-4.143,11,27.0,2.137,-6.7487e-08,-0.002165225642,-0.003753624906,0,3,155.56029660000002,0,0,8,11.0,0.0,139.24223981627352,286.66900000000004,104.67402
B-3996,Clc1cccc2ccccc12,-3.9706,11,27.0,1.3430000000000002,-1.769e-07,-0.002211541451,-0.002987970765,0,3,155.56029660000002,0,0,6,6.0,0.0,133.92001133548771,276.046,104.071967
C-1935,ClC1=CC(=CC(=C1)C2(CO2)CC(Cl)(Cl)Cl)Cl,-5.25,14,42.0,2.341,-2.4031525e-05,0.004095051352,-0.001907208616,0,18,313.3714518,0,1,6,8.0,0.001,220.9521213174221,414.87,165.976016
B-2607,CC(=O)OC(c1ccc(Cl)c(Cl)c1)C(Cl)(Cl)Cl,-3.8279,14,45.0,3.86,-0.000362340168,0.004234486833,-0.010124460044,0,18,329.3708567,0,2,5,8.0,0.0,232.28686422040695,421.5630000000001,171.238783
B-910,Fc1cccc2ccccc12,-3.4527,11,27.0,2.452,-9.9636914e-05,-0.000873262043,-0.003810910233,0,4,139.1057622,0,0,5,7.0,0.001,122.70804867755496,259.043,92.224306
G-92,Ic1cccc2ccccc12,-4.55,11,27.0,3.083,-5.4147771e-05,-0.005611606973,-0.005935444029,0,3,247.0118309,0,0,6,7.0,0.0,144.9911501450563,295.464,122.173663
B-3082,N#CCO/N=C(C#N)/c1ccccc1,-3.2899,14,36.0,5.7,-8.435534e-05,-0.005138252962,-0.00946711737,0,4,178.12687350000002,3,1,10,10.0,0.0,167.63209778684998,307.474,113.44296
B-847,[nH]1c2ccccc2nc1c3cscn3,-3.6048,13,36.0,5.004,-0.000299174644,-0.00357441651,-0.016586875182,0,4,194.192256,3,0,12,10.0,0.001,160.12016915793768,323.598,127.784057
F-544,NC1=CC(=O)C(=O)C2=C1C=CC=C2,-3.84,13,33.0,3.19,-0.0020425323009999,0.00627239343,-0.008738856934,0,5,166.1128721,1,2,10,11.0,0.001,146.40853098715846,296.157,104.83446
B-2295,OC(=O)c1cccc2ncccc12,-2.6774,13,33.0,10.674,-0.005352771698,0.006530730292,-0.037641310189,0,3,166.1128721,1,2,11,10.0,0.001,140.63261284593884,292.543,105.204964
B-2355,OC(=O)c1ccc2ncccc2c1,-0.0456,13,33.0,16.017,-0.006276974194,0.006958364614,-0.051758604256,0,4,166.1128721,1,2,13,11.0,0.0,145.99809355428826,301.814,105.894184
B-309,OC(=O)c1cccc2cccnc12,-1.7447,13,33.0,11.714,-0.00472516028,0.005716280921,-0.038091210871,0,3,166.1128721,1,2,10,11.0,0.001,140.79556962776272,287.106,104.606033
B-364,OC(=O)c1ccc2ccccc2n1,-1.0911,13,33.0,16.172,-0.005961308974,0.0065556394039999,-0.051521230013,0,4,166.1128721,1,2,15,12.0,0.0,145.94999685919026,298.632,105.841397
B-4063,Oc1c(ccc2ccccc12)N=O,-2.5395,13,33.0,6.263999999999999,-0.001887162873,0.004773594971,-0.01110273381,0,5,166.112872,1,2,8,10.0,0.0,140.43517604957202,287.045,105.533399
F-348,C1=CC=C2C=C(C=CC2=C1)[N+](=O)[O-],-3.82,13,33.0,9.33,-0.004558976617,0.007151439812,-0.016864520237,0,4,166.112872,1,2,14,9.0,0.0,145.983694234155,298.298,106.680856
F-270,C1=CC=C2C(=C1)C=CC=C2[N+](=O)[O-],-3.71,13,33.0,6.386,-0.0035586337849999,0.0061266749179999,-0.012507756629,0,4,166.112872,1,2,10,10.0,-0.001,140.79316165684787,284.695,106.058603
B-1919,Oc1ccc2ccccc2c1N=O,-2.9374,13,33.0,6.357,-0.001687524548,0.004482653636,-0.0072021711939999,0,4,166.112872,1,2,10,8.0,0.0,142.02805997101518,276.436,105.010034
F-489,O=C1C=CC2=C(C=CC=C2)C1=NO,-2.94,13,33.0,6.973,-0.002170239928,0.006006867667,-0.0108547473579999,0,5,166.112872,1,2,8,10.0,0.0,140.39471056023922,286.60200000000003,105.567728
A-319,O=C1C=CC(=O)N1c2ccccc2,-2.327317556,13,33.0,0.703,-0.001738281635,0.005379163464,-0.003442919364,0,4,166.1128721,1,2,9,8.0,-0.001,141.7123512318081,291.819,104.88081
B-1161,Oc1ccc2ccccc2c1[N+]([O-])=O,-2.9758,14,36.0,7.768,-0.003749544871,0.010007516429,-0.015698667223,0,7,182.112277,1,3,8,8.0,-0.001,148.95659136113227,288.898,110.187506
F-296,O=C1NC(=S)SC1=CC1=CC(O)=C(O)C=C1,-3.34,16,42.0,3.279,-0.002791485637,0.01676475888,-0.002930555998,0,7,246.2418518,1,3,20,14.0,0.0,192.3420397142494,406.725,151.076463
A-551,c1ccc2ccccc2c1,-4.311225605,10,24.0,0.0,-0.0,-0.0036225747249999,-0.0032109151679999,0,0,120.107359,0,0,10,8.0,0.0,119.82011102615384,252.607,90.001023
B-1958,NC1=C(Br)C(=O)N(N=C1)c2ccccc2,-3.124,15,39.0,10.102,-0.000135531459,-0.005119976127,-0.020923014199,0,5,258.03040130000005,3,1,12,9.0,0.0,176.36573173466095,334.829,135.295636
B-1708,NC1=C(Cl)C(=O)N(N=C1)c2ccccc2,-2.7436,15,39.0,9.261,-8.853326499999999e-05,-0.0034744751669999,-0.019032997183,0,5,213.5798111,3,1,12,9.0,0.001,173.7748197922906,327.547,128.737769
C-2046,NC(=O)C1=C[N](CC2=C(F)C=CC=C2F)N=N1,-3.5,17,45.0,2.533,-0.001336446015,0.003816848637,-0.010433288665,0,8,230.1303831,4,1,16,14.0,-0.001,189.4461214049037,390.418,127.530703
B-1231,c1ccc(nc1)c2cccnc2,-0.5916,12,30.0,2.092,-1.4991569999999998e-06,-0.005612046345,-0.006509690191,0,2,148.1207654,2,0,5,9.0,0.0,137.12884154588764,284.771,101.862909
B-4278,c1ccc(nc1)c2ccccn2,-1.4206,12,30.0,1.3730000000000002,-6.52393e-07,-0.005082426425,-0.005641550302,0,2,148.1207654,2,0,6,10.0,0.0,136.76657969076888,284.295,103.02117
B-4279,c1cc(ccn1)c2ccncc2,-1.5376,12,30.0,0.001,-9.3333e-08,-0.0053303949399999,-0.0052542670149999,0,0,148.1207654,2,0,8,10.0,0.0,137.1368459079582,283.844,103.156574
B-2121,[O-][N+](=O)Cc1ccc2ccccc2n1,-2.0545,14,36.0,15.949000000000002,-0.006776468651,0.00780150248,-0.048853043057,0,4,180.1195753,2,2,11,12.0,0.0,164.7903207498152,308.463,111.935098
B-2847,Cc1ccc2c(ccc(O)c2n1)[N+]([O-])=O,-3.9598,15,39.0,3.009,-0.003562767547,0.010252872795,-0.012346004299,0,8,196.1189802,2,3,7,8.0,0.0,161.6805981443431,304.559,116.671306
B-4002,Oc1ccc2ccccc2c1,-2.2809,11,27.0,5.641,-0.002404812023,0.0029114086759999,-0.01012751347,0,2,136.1067639,0,1,7,10.0,0.0,123.19276347349562,263.24,91.928819
A-4661,Oc1cccc2ccccc12,-2.061973923,11,27.0,6.099,-0.002655570249,0.001992797291,-0.0169805955049999,0,2,136.1067639,0,1,7,8.0,0.001,122.85125094891728,260.434,93.543194
A-758,CC(=O)c1oc2ccccc2c1,-2.548488397,12,30.0,2.514,-0.00030431869,0.002753916325,-1.2640915e-05,0,5,152.1061688,0,2,6,7.0,0.001,134.84646328745504,286.835,98.619783
B-775,Oc1cc(O)c2ccccc2c1,-1.9493,12,30.0,6.322,-0.003153251544,0.008705606877,-0.008383859846,0,4,152.1061688,0,2,9,10.0,0.0,131.64369258805522,278.648,97.805533
D-1216,Oc1ccc2cc(O)ccc2c1,-2.205,12,30.0,0.005,-0.00321432789,0.008608982405,-0.008298488223,0,4,152.1061688,0,2,8,9.0,-0.001,136.86480793651737,283.66900000000004,99.103496
C-429,OC1=CC=CC2=C1C=CC=C2O,-2.92,12,30.0,0.001,-0.002422438162,0.007201149331,-0.00692200739,0,4,152.1061688,0,2,8,8.0,0.0,130.944876228024,274.291,98.518074
B-357,Oc1cc2ccccc2cc1O,-2.7377,12,30.0,0.069,-0.002402179749,0.00852933447,-0.003729631643,0,2,152.1061688,0,2,6,12.0,0.0,190.28536189957816,348.069,99.835054
B-1091,COc1ccc2C=CC(=O)Oc2c1,-3.1221,13,33.0,10.849,-0.002934731207,0.004230761596,-0.032112851721,0,4,168.1055738,0,3,9,9.0,0.0,141.32979004324918,302.83,105.129678
A-3799,O[S](=O)(=O)c1ccc2ccccc2c1,0.230443278,14,36.0,10.924,-0.014401895046,0.011183001892,-0.035843929914,0,6,200.1703612,0,3,12,12.0,0.0,160.3615780408551,321.601,125.628035
B-3399,COc1c(oc2ccccc12)C(O)=O,-2.8857,14,36.0,14.832,-0.006719453799,0.008019716338,-0.069572626441,0,6,184.1049787,0,4,12,10.0,-0.001,147.8742369329439,310.151,109.37528799999998
F-860,O=C(O)C=CC1=CC2=C(C=C1)OCO2,-3.19,14,36.0,15.084,-0.0054784633999999,0.013544879184,-0.036794776029,0,4,184.1049787,0,4,13,10.0,0.0,147.67754929708312,325.743,108.249299
B-1857,OC(=O)\C=C/c1ccc2OCOc2c1,-3.8523,14,36.0,14.651,-0.005427232051,0.013496458764,-0.035700121539,0,5,184.1049787,0,4,13,13.0,0.0,147.728623764345,325.543,108.267833
B-1071,O[S](=O)(=O)c1ccc2c(cccc2[S](O)(=O)=O)c1,0.5402,18,48.0,4.623,-0.028509862351,0.025749341701,-0.069009411604,0,12,280.2333633,0,6,16,16.0,0.0,201.02081952053305,390.275,161.640999
B-2510,COc1c(cc(cc1C(O)=O)C(O)=O)C(O)=O,-1.5354,17,45.0,18.418,-0.011676064698,0.022792006453,-0.121553501318,0,11,232.1031934,0,7,18,12.0,0.0,180.9483068638145,362.61300000000006,124.482132
B-3393,COc1cc(Br)c2COC(=O)c2c1OC,-3.9311,15,39.0,13.044,-0.003313830018,0.003797066952,-0.058674905497,0,9,264.0085065,0,4,11,11.0,0.001,172.1091273417502,355.01,132.307041
B-1811,CC(=C)C(=O)Nc1ccc(Cl)c(Cl)c1,-4.4325,12,36.0,8.84,-0.002414962366,0.002873460123,-0.019184860022,0,11,221.0193423,1,1,6,8.0,0.0,180.03408089412318,371.194,127.331405
A-1098,ClCCc1cc2CC(=O)Nc2cc1Cl,-4.77757407,14,36.0,8.996,-0.002399224772,0.0047334265139999,-0.012079591269,0,8,221.0193423,1,1,9,8.0,0.0,173.31840724818943,359.051,130.06694299999998
B-2575,ClC(Cl)(Cl)CC(=C)c1ccccc1,-4.2822,13,33.0,3.052,-3.1019e-07,0.000124643729,-0.004621866556,0,9,226.4661717,0,0,7,7.0,-0.001,186.44129234073444,361.325,132.799858
B-1754,CCOC(=O)COc1cc(Cl)c(Cl)cc1Cl,-4.8493,14,42.0,13.894,-0.002725611287,0.007205932526,-0.0246513113359999,0,15,274.46438650000005,0,3,8,7.0,0.0,203.20209632702773,416.785,150.202043
B-369,OC(=O)CCCOc1cc(Cl)c(Cl)cc1Cl,-3.8294,14,42.0,6.381,-0.002879130114,0.011844897353,-0.007933481943,0,14,274.46438650000005,0,3,5,9.0,0.001,199.79719231270232,409.923,148.366628
B-1872,ClC(Cl)C(Cl)(Cl)SN1C(=O)C2CC=CCC2C1=O,-5.3968,18,48.0,3.193,-0.001844678712,0.0086938259369999,-0.002432304185,0,19,339.98940980000003,1,2,7,7.0,-0.001,234.68684450647584,414.395,183.257186
F-291,COP(=O)(OC)OC(=CCl)C1=C(Cl)C=C(Cl)C(Cl)=C1,-4.52,15,51.0,24.889,-0.1844775645719999,0.01266851466,-0.327394937152,0,21,356.890491,0,4,12,10.0,0.0,235.36737068748852,464.654,195.244801
B-2614,CO[P](=O)(OC)OC(=C/Cl)/c1cc(Cl)c(Cl)cc1Cl,-4.5221,16,51.0,26.02,-0.177679706019,0.015701818244,-0.313821330016,0,20,356.890491,0,4,15,10.0,0.001,218.8186192224304,436.307,194.30537
C-1417,CO[P](=O)(OC)OC(=C\Cl)/C1=C(Cl)C=C(Cl)C(=C1)Cl,-4.52,16,51.0,11.827,-0.003307562417,0.006538181445,-0.025372533783,0,22,356.890491,0,4,10,9.0,0.0,259.30786981009254,478.04,195.160821
A-4959,ClCCN1C(=O)Nc2ccccc2C1=O,-3.574799439,15,39.0,3.711,-0.0038647015999999,0.006406574193,-0.017374985169,0,8,215.5725128,2,2,11,11.0,0.0,167.787595682717,342.11,127.38558799999998
F-487,CC(=O)C(OC1=C(Cl)C=CC=C1)C(=O)O,-2.1,15,39.0,5.225,-0.002254652341,0.009568046838,-0.006801681794,0,12,219.5579163,0,4,9,10.0,0.0,181.3761784528916,338.966,122.879276
C-1174,CC1=CC2=C(C=CC=C2)C=N1,-2.19,11,27.0,4.25,-1.325464e-06,-0.004515296161,-0.005767008523,0,1,134.1140622,1,0,13,9.0,0.0,133.50872698202056,266.56,96.355131