Name,SMILES,Solubility,AtomNum,DegFreedom,Dipole,Ghb,Gsasa,Gsolv,HNum,LP,MolWt,NNum,ONum,PiCenters,PiDeloc,Quadrupole,Volume,SASA,Polarizabilty
A-1708,CC(C)=CC\C=C(/C)C=C,-3.972930257,10,24.0,3.168,-2.353713e-06,-0.00449969275,-0.0125122500389999,0,3,120.107359,0,0,1,10.0,0.0,143.50044698526048,313.77,91.874122
B-726,CC(C)=CCCC(=C)C=C,-4.3861,10,24.0,1.793,-2.14518e-06,-0.0045008341609999,-0.010450160746,0,3,120.107359,0,0,1,8.0,0.001,143.40476633295054,313.849,91.850949
A-2377,CC1=CCC2CC1C2(C)C,-3.772570424,10,24.0,7.001,-2.265611e-06,-0.0039772321039999,-0.013286869238,0,2,120.107359,0,0,8,8.0,0.0,134.1543869237821,277.338,91.099543
A-135,CC1=CC[C@H]2C[C@@H]1C2(C)C,-4.772570424,10,24.0,6.992000000000001,-2.264946e-06,-0.003977302256,-0.0132818189119999,0,2,120.107359,0,0,8,7.0,0.0,134.15846954272587,277.343,91.09528
A-36,CC1(C)C2CCC(=C)C1C2,-4.292313455,10,24.0,7.017,-2.26415e-06,-0.0039775970809999,-0.013287887781,0,2,120.107359,0,0,8,8.0,0.0,134.16126149486416,277.363,91.091484
A-1404,CC1=CCC2C(C1)C2(C)C,-4.670405271,10,24.0,2.446,-1.801184e-06,-0.003868067522,-0.009245689019,0,2,120.107359,0,0,6,6.0,0.0,127.4141369875722,269.726,89.777102
A-870,CC1(C)C2CCC(C2)C1=C,-4.471540428,10,24.0,3.343,-1.4539e-06,-0.003879964503,-0.009076180202,0,3,120.107359,0,0,8,7.0,0.0,132.9952831053284,270.555,81.371945
A-142,CC(=C)C1CCC(=CC1)C,-3.84649653,10,24.0,7.725,-1.386221e-06,-0.00386688491,-0.0115011148249999,0,2,120.107359,0,0,6,8.0,0.0,133.1883678018634,269.643,89.364166
A-554,CC(=C)[C@@H]1CCC(=CC1)C,-4.346837785,10,24.0,7.735,-1.387211e-06,-0.0038667472249999,-0.011507966314,0,2,120.107359,0,0,6,8.0,0.0,133.15812052260682,269.634,89.36985899999999
B-434,CC(C)C1=CCC(=CC1)C,-4.1958,10,24.0,7.728,-1.387471e-06,-0.003866896684,-0.011510097782,0,2,120.107359,0,0,6,9.0,0.0,133.17124528505056,269.644,89.363835
A-29,CC(C)=C1CCC(=CC1)C,-4.287342935,10,24.0,7.729,-1.389639e-06,-0.003866963103,-0.011521984184,0,2,120.107359,0,0,6,8.0,0.0,133.16781368679787,269.649,89.359247
B-1844,CC(C)N(C(C)C)C(=O)SCC(Cl)=C(Cl)Cl,-4.8818,14,42.0,9.677,-0.000775334026,0.004387669359,-0.0130732601499999,0,14,288.5370673,1,1,7,8.0,0.001,231.6811062203141,404.772,165.91286499999998
B-3145,CCOC(=O)CNc1nc(Cl)nc(NC(C)C)n1,-2.5622,17,48.0,7.342,-0.0023424729149999,0.000576743979,-0.024887926378,0,11,257.5926225,4,2,10,10.0,-0.001,217.96451478385188,449.964,150.99338799999998
F-598,CC12CCC(C(=NO)C1=NO)C2(C)C,-2.52,14,36.0,5.1160000000000005,-0.0031647588709999,0.008606110146,-0.01649698589,0,4,180.1195753,2,2,14,10.0,0.0,151.68536090014612,372.305,109.973671
C-1993,CCN(CC)[S](=O)(=O)C1=CC=C(N)C=C1,-2.63,15,39.0,8.619,-0.006755788597,0.003932446164,-0.037150510421,0,6,212.1843627,2,2,8,13.0,0.0,185.4577193011688,337.004,134.806769
C-1662,CCCCC1(CC)C(=O)NC(=S)NC1=O,-3.14,14,39.0,7.606,-0.0031533204849999,0.009229860904,-0.016707182022,0,6,212.1843627,1,2,12,10.0,0.0,194.240382736118,393.959,133.96372
F-333,CCCC1(CCC)C(=O)NC(=O)NC1=O,-2.53,15,39.0,2.102,-0.00198110663,0.0052578032479999,-0.008240293379,0,6,196.1189802,2,3,14,11.0,0.0,178.96945768877998,374.32,120.882151
F-340,CCCCC1(CC)C(=O)NC(=O)NC1=O,-1.67,15,39.0,13.995,-0.004806883534,0.0102935324099999,-0.034549936456,0,6,196.1189802,2,3,13,11.0,0.0,180.7373593335296,371.007,118.925836
C-154,CC(C)C1(C(C)C)C(=O)NC(=O)NC1=O,-2.77,15,39.0,12.87,-0.005044297505,0.011014753104,-0.032457628056,0,5,196.1189802,2,3,12,14.0,0.0,188.06925738091903,366.342,118.250184
F-446,CCCCC1(CCO)C(=O)NC(=S)NC1=O,-2.17,15,42.0,23.865,-0.004058263234,0.015567684492,-0.042051932347,0,6,228.1837676,1,3,15,16.0,-0.001,154.32597668531858,408.0630000000001,137.86875600000002
F-375,CC(C)CC1(CCO)C(=O)NC(=S)NC1=O,-2.62,15,42.0,5.21,-0.001099693617,0.008437075577,-0.003485803118,0,6,228.1837676,1,3,17,13.0,-0.001,204.60852672698368,407.658,139.683276
D-1348,OC(=O)CCCCC1SCC2NC(=O)NC12,-3.0460000000000003,16,42.0,7.942,-0.0043091924469999,0.014141592875,-0.013537946879,0,8,228.1837676,2,3,16,11.0,0.0,182.1731720953801,382.955,135.07323
C-1627,CCC(CC=C)(C(=O)NC(N)=O)C(=O)OC,-1.92,16,42.0,2.778,-0.002450892972,0.008776284997,-0.013558886227,0,11,212.1183851,2,4,11,10.0,0.0,193.5077966464547,384.505,122.701733
A-4664,CC(=O)N(CCN(C(C)=O)C(C)=O)C(C)=O,-2.279225735,16,42.0,6.145,-0.002990225307,0.012901360233,-0.014405404121,0,8,212.1183851,2,4,12,14.0,0.001,188.71938148502463,367.8080000000001,122.213881
F-673,NC1=CC=C(S(=O)(=O)NC(CO)(CO)CO)C=C1,-1.4,18,48.0,3.027,-0.007304733678,0.0164631419669999,-0.021652074103,0,12,260.1825774,2,5,17,10.0,0.0,210.0349949572436,393.71,145.935977
A-4786,OC(=O)CN(CCN(CC(O)=O)CC(O)=O)CC(O)=O,-2.766775599,20,54.0,5.438,-0.004512010626,0.020571132723,-0.011636360608,0,14,276.1160048,2,8,26,18.0,0.0,209.5455172805532,379.579,138.39414
A-2337,CCC(C)(N=NC(C)(CC)C#N)C#N,-2.696191526,14,36.0,2.046,-5.390103e-06,-0.0096743899419999,-0.014932641614,0,8,176.13417180000002,4,0,8,5.0,0.0,182.06770279020265,370.628,114.055179
B-2996,CN1CC(O)N(C1=O)c2sc(nn2)C(C)(C)C,-1.8773,17,45.0,2.917,-0.000950857907,0.001316426304,-0.005235613632,0,7,240.1977691,4,2,19,14.0,-0.001,214.94557788492097,399.21,146.198243
B-855,NC1=NC(=O)C(=C(N)N1)O[C@@H]2O[C@H](CO)[C@@H](O)[C@H](O)[C@H]2O,-1.4832,21,57.0,9.245,-0.003160633724,0.01776753648,-0.014917292989,0,17,288.1300063,4,7,20,9.0,0.0,225.5099995639669,414.015,147.652057
B-50,Nc1ncnc2n(cnc12)C3OC(CO[P](O)(=O)O[P](O)(=O)O[P](O)(O)=O)C(O)C3O,0.2948,21,87.0,1789.5870000000002,-7.574170814147,0.0191089252699999,-250.340413653297,0,72,491.054425,3,10,2,1.0,0.001,397.7503923293844,895.433,1318.519192
B-2926,CN=C(NCCSCc1nc[nH]c1C)NC#N,-1.4298,17,45.0,17.852,-0.0004659356049999,-0.008132478826,-0.047502642951,0,5,236.2123657,6,0,20,15.0,0.0,206.94032975342725,465.223,153.663652
B-2029,CCO[P](=S)(OCC)Oc1ccc(N)cc1,-2.826,16,42.0,9.595,-0.00294614614,0.000561172424,-0.026786933248,0,7,245.1508264,1,3,11,11.0,0.0,206.2678735032929,381.816,156.061368
A-4153,CCCC1CC(=CC(=O)C1)C,-1.772587094,11,27.0,2.07,-0.002119422494,0.002320073219,-0.013578927381,0,3,136.1067639,0,1,7,8.0,-0.001,134.64968520509015,300.963,89.386034
A-1235,CC(C)=CCCC(C)(O)C#C,-1.772080431,11,27.0,5.581,-0.000183714395,0.001679073465,-0.0103911865299999,0,3,136.1067639,0,1,11,10.0,0.0,155.00237885174997,330.26199999999994,97.12114
A-1780,CC1(C)C2CC(O)C(=C)C1C2,-2.09612479,11,27.0,8.494,-0.000293333048,0.002010868082,-0.014587986254,0,3,136.1067639,0,1,8,9.0,0.0,126.52098208052536,327.101,96.746873
C-21,CC(=C)C1CC=C(C)C(O)C1,-1.72,11,27.0,1.898,-0.001040256866,0.002099899234,-0.006111102794,0,3,136.1067639,0,1,7,9.0,-0.001,130.53172237629002,324.623,95.529599
E-871,O=C1C(C)CCC(C(C)=C)C1,-2.18,11,27.0,7.383999999999999,-0.002413514084,0.002259489109,-0.0208026948069999,0,4,136.1067639,0,1,5,6.0,0.0,140.71510542375722,285.35,93.031852
A-4162,CC(C)[C@H]1CCC(=CC1=O)C,-1.78824369,11,27.0,4.703,-0.001759774015,0.001420573306,-0.011797045499,0,4,136.1067639,0,1,5,7.0,0.0,142.93900196231257,289.757,94.741213
A-4185,CC1CC(=CC(C)C1C=O)C,-1.844063724,11,27.0,2.6060000000000003,-0.000395921366,0.002787928303,-0.000292510251,0,2,136.1067639,0,1,11,10.0,0.0,146.96008580978997,273.041,94.171106
A-4798,CC(C)=CC1CC(=C)CCO1,-2.510422359,11,27.0,7.502999999999999,-0.000433257301,0.002022573294,-0.007655430546,0,3,136.1067639,0,1,6,10.0,0.001,133.33895379165307,327.445,95.743615
E-870,O=CC=C(CCC=C(C)C)C,-2.06,11,27.0,5.23,-0.000503076834,0.0021361171479999,-0.0095292752229999,0,4,136.1067639,0,1,6,9.0,0.0,143.20065083395065,319.67900000000003,95.13068
A-566,CC(C)=CCC\C(C)=C\C=O,-2.411668206,11,27.0,6.074,-0.000450036823,0.002123111555,-0.00677433395,0,3,136.1067639,0,1,6,11.0,0.0,142.82131746405398,320.465,94.258849
B-1701,CC1(C)C2CC3OC3(C)C1C2,-2.5937,11,27.0,5.652,-0.000120570126,-0.000126432968,-0.0072663216559999,0,4,136.1067639,0,1,6,6.0,0.0,136.5242421652372,275.081,90.139199
A-70,CC1(C)[C@H]2C[C@@H]3O[C@]3(C)[C@@H]1C2,-2.593688492,11,27.0,5.697,-0.000120246239,-0.000123167907,-0.007304229738,0,4,136.1067639,0,1,6,5.0,0.0,136.49711397210666,275.092,90.126605
E-1236,O=C(C(CC1C2)(C2)C)C1(C)C,-1.85,11,27.0,3.107,-0.000818031262,0.00082459333,-0.009170537454,0,6,136.1067639,0,1,6,7.0,0.0,143.8675772251894,284.513,90.984214
B-2091,CC1(C)[C@@H]2CC[C@@](C)(C2)C1=O,-1.8507,11,27.0,3.105,-0.00081917963,0.000828477144,-0.009173685101,0,6,136.1067639,0,1,6,8.0,0.0,143.87028875908223,284.53700000000003,90.984745
B-205,CC1(C)C2CCC1(C)C(=O)C2,-1.9784,11,27.0,2.758,-0.000973293163,0.002448162293,-0.007888411423,0,4,136.1067639,0,1,11,8.0,0.0,144.1752111302915,285.48,88.439337
A-3527,C/C=C/CCC1CCCC(=O)O1,-1.488726291,12,30.0,4.272,-0.002495123377,0.0037057106559999,-0.015357191291,0,5,152.1061688,0,2,5,8.0,0.0,140.2584491932574,319.885,100.292735
A-935,CCCCCCC#CC(=O)OC,-3.651887666,12,30.0,5.42,-0.0004527330419999,0.001845266323,-0.007362095454,0,4,152.1061688,0,2,6,6.0,0.0,153.00533213470837,381.97,102.255714
B-990,CC1CCC2C(C)C(=O)OCC12,-1.9249,12,30.0,2.079,-0.001518264237,0.0038147147999999,-0.006560513357,0,5,152.1061688,0,2,6,7.0,-0.001,135.8257268517078,281.571,98.830341
A-1723,CC(=C)C(=O)OC1CCCCC1,-3.088564823,12,30.0,9.036,-0.000244154584,0.001163682439,-0.00983442987,0,4,152.1061688,0,2,6,9.0,0.0,143.7679401035469,289.926,98.756651
B-2357,CC1(C)C2CCC1(C)C(=O)C2O,-0.9249,12,30.0,2.313,-0.001464800186,0.006752884512,-0.009052851676,0,7,152.1061688,0,2,9,7.0,0.0,150.37618329261758,300.79900000000004,95.976443
B-2541,CC1(C)OC2(C)CCC1CC2=O,-0.9249,12,30.0,6.167999999999999,-0.001311976259,0.004493524244,-0.01153590617,0,4,152.1061688,0,2,10,10.0,0.0,140.32545844224674,298.965,100.098074
B-968,CC(=O)C1CC(CC(O)=O)C1(C)C,-0.5752,13,33.0,2.8360000000000003,-0.002280949468,0.011195582245,-0.005490276648,0,6,168.1055738,0,3,15,12.0,0.0,163.06825185004783,347.691,104.163396
A-3202,COC(=O)C1CCC(CC1)C(=O)OC,-1.387194666,14,36.0,0.018,-0.001248638499,0.009233384669,0.003736695724,0,6,184.1049787,0,4,22,9.0,-0.001,168.99345830715478,388.894,111.241986
A-3129,CCC1(COCOC1)COC(=O)C=C,-1.333054875,14,36.0,2.4730000000000003,-0.000652784594,0.00888522678,-0.0023990890969999,0,8,184.1049787,0,4,12,11.0,0.0,171.94120935148774,364.775,108.946027
E-872,O=C(O)C(C(C(C(=O)O)C1)(C)C)(C1)C,-1.42,14,36.0,0.81,-0.001734983805,0.010713754511,0.000528668688,0,7,184.1049787,0,4,13,14.0,0.0,165.82827706519947,389.838,111.115347
A-3389,OC(=O)CC1(CCCCC1)CC(O)=O,-1.47223405,14,36.0,10.916,-0.0058144615639999,0.0150693427979999,-0.029157224627,0,6,184.1049787,0,4,12,13.0,0.0,157.0367686987809,303.711,105.516494
F-971,CC1(C)C2CCC1(CS(=O)(=O)O)C(=O)C2,-0.3,15,39.0,8.646,-0.006594284118,0.016811990041,-0.02207271336,0,8,216.1697661,0,4,13,10.0,0.001,147.89239401867314,358.425,129.297014
E-1194,CC(C)N(C(C)C)C(=O)SCC(Cl)=CCl,-4.08,13,39.0,3.525,-0.001182359113,0.005329685317,-0.0031162230619999,0,13,253.0841297,1,1,8,9.0,0.0,219.6526269405696,366.467,149.966409
B-1843,CC(C)N(C(C)C)C(=O)SC\C(Cl)=C\Cl,-4.2856,14,39.0,4.955,-0.0007445699229999,0.003591703858,-0.014771021524,0,12,253.0841297,1,1,9,7.0,0.0,215.0270787506221,380.561,150.872349
A-1806,CC(CCC=C(C)C)CC#N,-3.104157036,11,27.0,0.826,-6.08495e-06,-0.00667077946,-0.016572241659,0,3,134.1140622,1,0,10,10.0,0.0,153.2889946368984,330.29900000000004,98.050763
C-1542,N[C]12C[CH]3[CH2]C([CH2][CH](C3)C1)C2,-1.85,11,27.0,3.563,-1.4264652e-05,-0.005339308919,-0.0184567932719999,0,4,134.1140622,1,0,3,4.0,0.0,127.8051083922743,242.524,78.62352299999999
B-2839,CCOc1cc(O[P](=S)(OC)OC)nc(CC)n1,-3.8638,18,48.0,11.598,-0.0050052186109999,0.002511828014,-0.018303494672,0,13,275.15693450000003,2,4,16,15.0,0.0,231.7981738942401,460.864,172.13339299999998
B-3005,CN(C)C(=O)Nc1cc(on1)C(C)(C)C,-2.4272,15,39.0,2.282,-0.000162243089,-0.002054571686,-0.006786929911,0,8,194.1262785,3,2,5,9.0,0.0,183.98594150445248,341.529,115.927132
B-694,CC(C)n1nc(C)cc1OC(=O)N(C)C,0.6752,15,39.0,2.449,-0.001169465399,-0.0008032286229999,-0.0107800678839999,0,10,194.1262785,3,2,12,10.0,-0.001,180.53458940550289,342.44300000000004,119.222793
A-1693,CC12CCCC(C)(CC1)C2=NO,-3.074152207,12,30.0,6.4510000000000005,-0.0003305737399999,0.0005007408189999,-0.007134828944,0,2,150.11346709999998,1,1,11,8.0,0.0,14.73282977156346,297.807,100.741305
C-69,CCC1(CC)C(=O)NCC(C)C1=O,-0.38,13,33.0,4.808,-0.001209688106,0.004653867528,-0.010520266906,0,6,166.112872,1,2,13,9.0,0.0,152.41344449455852,309.51,106.987253
F-892,O=C(C1CC1)N(O)C1CCCCC1,-2.04,13,33.0,6.835,-0.00264896702,0.003261455173,-0.015382162796,0,5,166.1128721,1,2,7,7.0,0.001,142.8657950141671,301.29200000000003,105.513634
F-30,NC(=O)OCC1CSC2(CCCCC2)S1,-3.52,15,39.0,9.801,-0.001945651336,0.0030367940139999,-0.013774703765,0,9,230.2424469,1,2,9,10.0,0.0,195.9385691075175,356.598,145.27148799999998
F-1010,CCC1(CC)CCC(=O)N(CO)C1=O,-3.96,14,36.0,9.596,-0.002035242589,0.012810676694,-0.014064097916,0,6,182.112277,1,3,17,10.0,-0.001,158.00337696255144,362.365,111.711854
F-38,NC(=O)OCC1CSC2(CCCCC2)O1,-2.82,15,39.0,10.261,-0.002013395877,0.003093050045,-0.015407815514,0,10,214.1770644,1,3,8,7.0,-0.001,184.1116117357193,346.146,130.268236
A-3694,CCCCNC(=O)OCCOC(=O)C=C,-1.634840597,15,39.0,7.149,-0.003782223786,0.008671367951,-0.014563181322,0,9,198.1116819,1,4,18,13.0,0.001,173.95413539319148,398.9330000000001,118.352597
F-29,NC(=O)OCC1COC2(CCCCC2)O1,-1.89,15,39.0,10.956,-0.0030007023229999,0.0062714327799999,-0.021775655514,0,8,198.1116819,1,4,11,10.0,0.0,173.37136876542306,331.225,114.683136
A-2514,C1CCC2CCCCC2C1,-4.140677705,10,24.0,0.0,-2.4e-11,-0.003622610903,-0.003210958515,0,0,120.107359,0,0,10,10.0,0.0,119.82085743857688,252.61,90.001009
A-2436,CC(CCC=C(C)C)C=C,-5.964586446,10,24.0,3.143,-2.34964e-06,-0.004499980877,-0.0125057367809999,0,3,120.107359,0,0,1,10.0,0.0,143.49533771459187,313.79,91.873773
A-2007,CC(C)C1CCC(=CC1)C,-5.010343937,10,24.0,7.732,-1.389625e-06,-0.003866887996,-0.011524594775,0,2,120.107359,0,0,6,8.0,-0.001,133.18396151623492,269.643,89.360711
B-3037,COC1OC(CNC(=O)N(CCCl)N=O)C(O)C(O)C1O,-1.5613,20,57.0,5.292999999999999,-0.0067509055929999,0.018829204013,-0.051284418636,0,17,309.57624060000006,2,7,19,13.0,0.0,226.08123593417443,436.402,159.911001
B-1744,CCN(CC)c1nc(Cl)nc(NC(C)C)n1,-3.7849,16,42.0,1.699,-5.693356e-06,-0.005474976171,-0.011702641176,0,9,225.5938126,5,0,9,11.0,0.0,203.8298537254189,405.833,142.4666
F-80,CCC1(C)NC(=O)C(C)(CC)NC1=O,-1.92,14,36.0,9.813,-0.001093346262,0.002982392473,-0.014805495611,0,4,180.1195753,2,2,19,11.0,0.0,30.55819396690405,386.209,114.722077
B-2535,ON=C1CCCCCCCCC1=NO,-2.5813,14,36.0,6.755,-0.002990570886,0.004321177064,-0.011279162967,0,5,180.1195753,2,2,9,9.0,0.0,157.3516778668993,302.176,113.278093
B-2165,CCOC(=O)N1CCN(CC1)C(=O)OCC,-0.7288,16,42.0,0.218,-0.002960484075,0.0063557497479999,-0.013717304985,0,4,212.1183851,2,4,18,15.0,0.001,179.68728365509875,377.057,125.447978
C-1108,CCOC(=O)C(CC)(CC)C(=O)NC(N)=O,-2.08,16,42.0,2.922,-0.002351321503,0.003592682098,-0.014982851685,0,8,212.1183851,2,4,18,16.0,0.001,191.1573831402771,421.54,126.235726
C-1116,CCC(CC)(C(=O)NC(N)=O)C(=O)OCOC,-2.17,17,45.0,8.891,-0.001389261973,0.004061158323,-0.019079662914,0,8,228.11779,2,5,20,11.0,0.0,190.16642534014005,401.48,131.200244
B-3043,CSC(/C)=N/OC(=O)N(C)SN(C)C(=O)O\N=C(/C)SC,-4.0055,19,57.0,17.85,-0.002422607625,0.009182358148,-0.036477585664,0,17,336.3261537,3,4,22,17.0,-0.001,275.8596864361739,503.795,197.829044
A-5049,NC(NC#N)=NCCCCCCN=C(N)NC#N,-4.4346903730000005,18,48.0,3.0380000000000003,-3.5816981e-05,-0.015697020392,-0.074468162044,0,4,232.1609847,8,0,18,14.0,0.0,210.36481295899551,465.385,143.238973
A-4767,CC(C)(C)C1CCC(=O)CC1,-2.417381608,11,27.0,3.835,-0.00151753687,0.002386029449,-0.0065975034459999,0,4,136.1067639,0,1,10,9.0,0.0,138.92886454385132,281.325,91.486863
A-365,CCCCC/C=C/CCC=O,-3.301742894,11,27.0,5.349,-0.000913636517,0.001946722346,-0.008208574522,0,2,136.1067639,0,1,4,9.0,-0.001,136.83523815370978,334.642,96.220991
A-586,CCC(C)C1CCCCC1=O,-2.427057806,11,27.0,5.257999999999999,-0.000907993673,0.000747771759,-0.007241639421,0,4,136.1067639,0,1,6,8.0,-0.001,134.78158037202763,283.625,94.864895
A-1059,CCC(=O)C(C)CC=C(C)C,-2.701095244,11,27.0,2.296,-0.000924534595,0.001786028504,-0.010016860927,0,3,136.1067639,0,1,9,10.0,0.0,157.40905444547516,327.405,96.485036
A-4808,CC1(C)CCCC(C)(O1)C=C,-2.535987278,11,27.0,4.657,-8.3276551e-05,-0.002076824268,-0.009967054926,0,4,136.1067639,0,1,8,9.0,0.0,149.44015250966743,288.964,93.832149
B-237,CC(C)=CCCC(C)(O)C=C,-1.9871,11,27.0,2.446,-7.4289595e-05,-0.0006833206599999,-0.006374114134,0,3,136.1067639,0,1,11,9.0,0.0,151.46392054970826,327.642,95.111104
E-1237,O=C(C(CCC1C)C(C)C)C1,-2.49,11,27.0,4.709,-0.001756668869,0.0014196475769999,-0.011781132035,0,4,136.1067639,0,1,5,6.0,0.0,142.94376834351445,289.793,94.742115
A-705,CC(C)[C@@H]1CC[C@@H](C)CC1=O,-2.491877231,11,27.0,4.633,-0.00121993215,0.000831313111,-0.00974902317,0,5,136.1067639,0,1,5,7.0,0.0,137.62025909487147,278.087,92.357297
A-3931,CC1CCC(C(O)C1)C(C)=C,-1.711112365,11,27.0,4.734,-0.001763072745,0.001421754806,-0.0118235377,0,4,136.1067639,0,1,5,7.0,-0.001,142.95198035200312,289.759,94.740013
A-465,CC1CC(=CC(C)C1CO)C,-2.371197393,11,27.0,4.412,-0.0017879459479999,0.002348850316,-0.012503016086,0,4,136.1067639,0,1,5,9.0,0.0,144.53935437613114,277.543,94.201137
A-1562,CC(C)C1(O)CCC(=CC1)C,-1.94099707,11,27.0,4.004,-7.07347e-06,-0.003205875827,-0.008980986291,0,1,136.1067639,0,1,7,10.0,-0.001,149.86516843109547,298.402,95.506237
A-4714,CC1CCOC(C1)C=C(C)C,-2.224445792,11,27.0,7.531000000000001,-0.000431338143,0.002022185825,-0.007677999142,0,3,136.1067639,0,1,6,10.0,0.001,133.48384908410722,327.449,95.744523
C-18,CC1=CCC(CC1)C(C)(C)O,-1.91,11,27.0,9.637,-0.0003102602449999,-0.0004892059479999,-0.015428590815,0,3,136.1067639,0,1,6,9.0,0.0,141.8691678517689,276.838,91.468096
B-419,CC1=CC[C@@H](CC1)C(C)(C)O,-2.337,11,27.0,9.6,-0.000306015061,-0.000491270094,-0.0152439793699999,0,3,136.1067639,0,1,6,10.0,0.0,141.9656079123271,276.812,91.475659
A-447,CC(C)=CCC\C(C)=C\CO,-2.351909504,11,27.0,7.51,-0.000432438621,0.002022502795,-0.0076548586289999,0,3,136.1067639,0,1,6,10.0,0.0,148.87283812665532,327.448,95.743872
A-23,CC(C)=CCC\C(C)=C/CO,-2.320601166,11,27.0,5.134,-0.000510269418,0.00213624508,-0.009301595609,0,4,136.1067639,0,1,6,9.0,-0.001,143.21241849306833,319.694,95.125959
A-295,C[C@H](CCC=C(C)C)CC=O,-3.243750947,11,27.0,5.625,-0.000449483046,0.002122898911,-0.006669919902,0,3,136.1067639,0,1,6,11.0,0.001,142.84026103086808,320.473,94.25841
B-1825,CC1(C)[C@@H]2CC[C@@](C)(C2)[C@@H]1O,-2.2702,11,27.0,3.117,-0.000817665682,0.0008256281029999,-0.009192492317,0,6,136.1067639,0,1,6,7.0,0.001,143.87094566160684,284.523,90.983772
B-1038,CC1(C)C2CCC1(C)C(O)C2,-2.3202,11,27.0,7.131,-0.000175143253,0.002009204414,-0.010453163674,0,3,136.1067639,0,1,5,9.0,0.0,106.31380131669606,318.247,95.832311
B-957,CC1(C)C2CCC1(C)[C@@H](O)C2,-2.319,11,27.0,8.66,-0.00191225907,0.002211191342,-0.016696707951,0,3,136.1067639,0,1,8,8.0,-0.001,148.3704791893569,284.368,94.83204
G-56,CC12CCC(CC1)C(C)(C)O2,-1.74,11,27.0,4.562,-0.001655925916,0.002626801709,-0.011781977697,0,3,136.1067639,0,1,9,8.0,0.001,139.24593263618098,283.324,94.289778
A-832,CCCCCC1CCCC(=O)O1,-1.6290322309999998,12,30.0,4.275,-0.002496223162,0.003706323619,-0.0153244763159999,0,5,152.1061688,0,2,5,8.0,0.0,140.24929283788995,319.874,100.294587
A-11,CCC1CCC(CCC(O)=O)C1,-3.286116314,12,30.0,5.341,-0.001807525757,0.006930088935,-0.008547601673,0,4,152.1061688,0,2,14,11.0,0.0,139.32600975364602,319.321,96.834535
A-4980,CCCCCCC(=O)OCC=C,-3.597623767,12,30.0,2.053,-0.000578553108,0.002838473273,-0.006891122262,0,4,152.1061688,0,2,6,10.0,0.0,153.1259330189711,367.5630000000001,102.545486
A-1157,CCCCCCOC(=O)C(C)=C,-3.755421034,12,30.0,3.12,-0.002066333269,0.002391292167,-0.010909271629,0,4,152.1061688,0,2,13,10.0,0.0,150.4259467718261,343.509,100.426047
A-1826,CC\C=C/CCOC(=O)C(C)C,-3.1741873710000004,12,30.0,3.137,-0.002070687811,0.002398789621,-0.010918190018,0,4,152.1061688,0,2,13,10.0,0.0,150.4178984593218,343.55400000000003,100.425979