Name,SMILES,Solubility,AtomNum,DegFreedom,Dipole,Ghb,Gsasa,Gsolv,HNum,LP,MolWt,NNum,ONum,PiCenters,PiDeloc,Quadrupole,Volume,SASA,Polarizabilty
C-692,CC(C)OC(=O)C1(CCCCC1)[S](=O)(=O)C2=CC=C(C)C=C2,-4.62,22,60.0,4.652,-0.006657653741,0.006905359127,-0.039796673535,0,9,300.2449174,0,4,15,16.0,0.0,273.3896682531792,436.887,190.826725
F-1185,CC(C)CC(NC(=S)NC1=CC=CC=C1)C(=O)NC1CCOC1O,-2.37,24,66.0,4.078,-0.001698089511,0.005792622741,-0.006025173859,0,9,326.26562210000003,3,3,23,19.0,0.0,283.7813108043049,492.915,209.383823
B-3279,CCOC(=O)CCN(Cc1ccccc1)SN(C)C(=O)O\N=C(\C)SC,-4.3005,24,72.0,16.055999999999997,-0.00421148726,0.00908230342,-0.04968379789,0,11,374.3298144,2,4,27,20.0,0.0,335.155190010806,538.331,232.687453
B-2555,N[C@@H]([C@H](O)[C@@H](O)COC(N)=O)C(=O)N[C@@H]([C@H]1O[C@H](C(O)C1O)N2C=C(CO)C(=O)NC2=O)C(O)=O,0.2946,35,99.0,35.712,-0.009889092528,0.035248042347,-0.089488982925,0,22,482.2082903,5,13,41,27.0,0.0,376.5638260391245,596.8430000000001,247.67167
C-1967,CC(C)CN(CC(C)C)C(=O)COC(=O)C1=CC=CC=C1,-3.56,21,57.0,4.599,-0.002591291044,0.002793396827,-0.020523138066,0,7,266.1874283,1,3,14,16.0,0.0,265.0971342177903,473.202,174.238654
B-3412,CCCCN(CCCC)C(=O)COC(=O)c1ccccc1,-3.5614,21,57.0,4.635,-0.002737404404,0.002551599719,-0.026312819074,0,7,266.1874283,1,3,14,14.0,0.0,247.46419539053247,482.83,174.235963
B-2329,CCCOCCN(C(=O)CCl)c1c(CC)cccc1CC,-3.795,20,57.0,9.842,-0.001303677776,-0.00016974096,-0.039893871979,0,6,285.6409609,1,2,13,13.0,-0.001,260.24878651344625,445.593,184.237239
D-2025,CCCCOCN(C(=O)CCl)c1c(CC)cccc1CC,-4.1930000000000005,20,57.0,13.222,-0.000393586865,0.003184997388,-0.0125964819509999,0,7,285.6409609,1,2,17,12.0,0.0,247.85113469523515,479.576,184.682663
A-560,CC1CCC2C(C)(C)C3CC12CC(=C3C)C(C)=O,-4.613478878,18,48.0,10.181,-0.001530526356,0.00087654871,-0.01989935118,0,3,220.1819152,0,1,11,12.0,0.0,230.35626479310017,368.395,156.161263
B-2536,COC(=O)C1=CO[C@@H](O[C@@H]2O[C@H](CO)[C@@H](O)[C@H](O)[C@H]2O)[C@@H]3[C@@H](C)[C@@H](O)C[C@H]13,-0.5911,27,75.0,21.589,-0.007282257515,0.0305390001409999,-0.0551002644249999,0,16,364.1765595,0,10,25,19.0,0.0,288.09056306282633,506.935,200.534105
A-4984,CCCCCCCCCc1ccc(OCC(O)=O)cc1,-3.84259676,20,54.0,12.544,-0.0035362752269999,0.006109616899,-0.033400433503,0,5,252.1807251,0,3,10,14.0,0.001,232.8455505728688,484.417,167.426466
B-1750,CNC(=O)Oc1c(cc(C)cc1C(C)(C)C)C(C)(C)C,-4.598,20,54.0,3.718,-0.001137754435,-0.002400591589,-0.017564645963,0,9,250.1880234,1,2,12,14.0,0.0,259.67167341824427,437.752,166.704627
A-5483,COc1ccc(cc1)C(CN(C)C)C2(O)CCCCC2,0.256718745,20,54.0,14.835,-0.002142770152,-0.0015479708139999,-0.041666982065,0,5,250.1880234,1,2,17,15.0,0.001,227.6361970053697,466.665,172.014999
E-728,c1cc(OCCCC)ccc1C(=O)OCCN(CC)CC,-3.84,21,57.0,8.788,-0.001887018235,0.001413777679,-0.021792525871,0,7,266.1874283,1,3,20,15.0,-0.001,247.93318558325456,508.654,175.475657
G-1060,CCCCOc1ccc(C(=O)OCC)c(c1)N(CC)CC ,-3.84,21,57.0,10.038,-0.001438795751,-0.000827530279,-0.034866429016,0,7,266.1874283,1,3,19,17.0,-0.001,250.0943109766363,474.085,174.954472
C-1921,CCCC(=N\OCC)/C1=C(O)CC(CC1=O)C2CCCSC2,-3.58,21,60.0,41.788,-0.004477781408,0.004597355741,-0.113057588305,0,8,298.2522157,1,3,12,15.0,0.0,259.8175129361576,476.771,193.532435
C-508,CC(C)(C)NCC(O)COC1=CC=CC2=C1CC(O)C(O)C2,-1.01,22,60.0,11.338,-0.004440305067,0.014755262294,-0.023427780968,0,7,282.1868332,1,4,19,20.0,0.0,261.36891773360315,471.012,178.348741
B-2891,CC(C)(C)NCC(O)COc1cccc2C[C@@H](O)[C@@H](O)Cc12,-1.5699,22,60.0,18.977,-0.003394079168,0.008814023684,-0.038490446134,0,6,282.1868332,1,4,23,16.0,0.001,261.161543250752,460.427,177.38619599999998
B-3265,CCCCCCCCCCCNC(=O)c1cccnc1,-3.0266,20,54.0,3.079,-0.002321016619,-0.003031220435,-0.024707059393,0,4,248.1953216,2,1,7,11.0,0.001,235.95606195484032,498.382,170.903768
A-2055,C[C@@H]1CC[C@H]2C(C)(C)C3CC12CCC3(C)OC(C)=O,-5.426641039,19,51.0,5.045,-0.002637326806,0.002640507541,-0.01802552276,0,5,236.1813201,0,2,8,11.0,0.0,238.77486280777973,361.796,157.759244
A-1429,CC1CCC(CC2=C1CCC2C)C(C)(C)OC(C)=O,-5.022602512,19,51.0,17.317,-0.000872919476,-0.001475933849,-0.036826182944,0,5,236.1813201,0,2,11,14.0,0.0,244.2748157587136,397.419,161.879995
A-1153,CC(C)(COCCCOC(=O)C=C)COCCCOC(=O)C=C,-3.04954214,23,63.0,8.304,-0.0009400764569999,0.009429456598,-0.012301352118,0,8,300.1789398,0,6,21,18.0,0.0,287.4238146537652,604.325,183.102071
A-648,CN(C)Cc1cc(c(O)c(c1)C(C)(C)C)C(C)(C)C,-2.7113870280000003,19,51.0,0.809,-0.001490353771,-0.00244060753,-0.02655285579,0,5,234.1886184,1,1,15,12.0,0.0,259.6887003131315,442.3130000000001,162.44238700000002
A-224,CCCCCCCCCCCC[n+]1ccccc1,-0.453910537,18,48.0,5.37,-1.612046e-06,-0.006792524316,-0.081672867848,0,1,218.1892135,1,0,4,16.0,0.0,219.2938425021236,469.567,157.424489
D-2069,CCOC(=O)\C=C(C)\C=C\CC(C)CCCC(C)C,-5.693,19,51.0,13.78,-0.002584888264,0.00010949726,-0.0400964381669999,0,5,236.1813201,0,2,9,15.0,0.0,247.2329669249358,500.4980000000001,163.73366
F-1067,CCCCCCCC(=O)OC1C(C(O)CO)OC2OC(C)(C)OC21,-3.17,24,66.0,7.806,-0.004194900298,0.015145663851,-0.0273820318479999,0,12,316.1783447,0,7,13,16.0,0.0,267.828987222326,527.7959999999999,187.391268
D-951,CCCCCCCCCCCCN1CC(CC1=O)C(O)=O,-3.2230000000000003,21,57.0,25.161,-0.007796456766,0.010061112466,-0.073017476712,0,6,266.1874283,1,3,11,19.0,0.0,240.9275358374716,520.435,173.964821
A-300,CCCCCCCCCCCC(=O)N[C@@H](CCC(O)=O)C([O-])=O,-3.60911048,23,63.0,54.995,-0.0173680960119999,0.0219167760009999,-0.1946996302019999,0,9,298.1862381,1,5,17,19.0,0.0,261.6514367605413,575.663,187.28074
A-5490,CCCCCCCCCCCCCCOC(=O)C=C,-4.428848848,19,51.0,12.174,-0.002229425067,1.5464541e-05,-0.034242334313,0,3,236.1813201,0,2,8,17.0,-0.001,231.9405485010253,514.441,164.956045
F-1004,CCCCCCCCCCNC(=O)OCC1OC(O)C(O)C(O)C1O,-3.56,25,69.0,16.226,-0.005853193198,0.019867218305,-0.044324277548,0,12,330.185048,1,7,18,20.0,0.0,276.07829048116184,582.026,194.182162
A-2450,CC(C)CCCCCCCCOCCCNCCC#N,-3.618466492,20,54.0,22.257,-2.8207829e-05,-0.008183562433,-0.0499895183409999,0,2,248.1953216,2,1,11,19.0,0.001,245.33658745242985,533.864,171.738027
C-88,CCCCCCCCCCNC(=O)NC1CCCCC1,-2.81,20,54.0,6.331,-0.0002059046489999,-0.006039076152,-0.0154272294519999,0,3,248.1953216,2,1,8,18.0,0.0,237.2253176128344,479.405,171.751096
C-1586,CCCCCCCCCCCCCCCCC(O)=O,-4.69,19,51.0,33.104,-0.007948422705,0.005011092775,-0.094635159008,0,4,236.1813201,0,2,7,19.0,0.0,228.72979320666283,513.646,163.360927
A-2304,CCCCCCCCCCCCCCCC(=O)OC,-7.830038235,19,51.0,8.092,-0.001024026287,3.7509468e-05,-0.014530231714,0,4,236.1813201,0,2,6,17.0,-0.001,236.72428206549935,537.722,165.198317
A-6006,CCCCCCCCCCCCCC(=O)OC(C)C,-6.733128222,19,51.0,17.719,-0.0027802121299999,-3.9415342e-05,-0.042003770684,0,5,236.1813201,0,2,6,16.0,0.0,234.38606387549703,508.495,163.434685
A-2710,CCCCCCCCCCCC(=O)OCCC(C)C,-6.733128222,19,51.0,8.415,-0.002685875273,0.000142736126,-0.027317666564,0,5,236.1813201,0,2,9,15.0,0.0,234.764811353967,508.833,163.492283
A-2745,CCCCC(CC)COC(=O)OCC(CC)CCCC,-6.979936669,20,54.0,4.689,-0.001022992352,-0.0009047473179999,-0.023361418138,0,7,252.1807251,0,3,10,15.0,-0.001,252.73894553908409,505.906,171.158921
A-2221,CC1CC(C)(C)CC(C1)(OOC(C)(C)C)OOC(C)(C)C,-6.480660768,21,57.0,2.277,-0.001140389216,0.00065409349,-0.010637510321,0,12,268.18013,0,4,10,13.0,0.0,293.19743503488473,404.24300000000005,152.93805600000002
A-6050,CCCCCCCCCCCCCC(=O)OCC(O)CO,-7.397875397999999,21,57.0,27.731,-0.0083686412159999,0.010594462281,-0.102142559723,0,8,268.18013,0,4,10,17.0,0.0,251.3050823603648,506.648,172.87093000000002
A-1452,CCCCOC(=O)CCC(C)(OOC(C)(C)C)OOC(C)(C)C,-5.189881345,23,63.0,4.247,-0.001861598038,0.006321279715,-0.0161970275,0,11,300.1789398,0,6,24,20.0,0.0,307.483912007772,527.212,181.640051
A-198,CCCCC(CC)CNC(=O)CCCCCC(C)C,-5.731545252999999,19,51.0,3.071,-0.002142099796,-0.001359234732,-0.026455866826,0,5,234.1886184,1,1,14,14.0,0.0,243.80981463896512,515.874,167.876959
B-3350,CCCCCCCCCCCCCCNC(=O)C(C)O,-3.9784,20,54.0,15.453,-0.004887216854,0.005148495941,-0.042901407676,0,4,250.1880233,1,2,8,17.0,0.001,246.50052689469436,528.8580000000001,170.518521
A-876,CCCCN(CCCC)C(=O)N(CCCC)CCCC,-4.820595497,20,54.0,3.181,-0.001924878996,-0.002252652433,-0.034174024844,0,6,248.1953216,2,1,10,17.0,0.0,250.09246743819827,495.562,175.50906799999998
B-3386,NCCCCCCNCCCCCCCCCCC(O)=O,-2.3017,21,57.0,55.569,-0.0097560768389999,0.002368792488,-0.147797938937,0,5,264.1947266,2,2,10,17.0,0.0,247.132687504364,550.889,175.759397
B-1658,CCCCCCCCCCCCCCCCCO,-7.506,18,48.0,11.088,-0.001121536022,-0.000387048415,-0.016262955511,0,2,220.1819152,0,1,4,10.0,0.001,220.66748879428363,497.889,159.240432
A-2552,CCCCC(CC)COCOCC(CC)CCCC,-5.435323474,19,51.0,0.959,-7.412135e-05,-0.005602721438,-0.0508709796019999,0,2,236.1813201,0,2,15,17.0,0.0,237.4466520103492,515.265,168.207841
A-4617,CCCCCCCCCCCCCCCCCO[S]([O-])(=O)=O,-2.366992667,22,60.0,17.74,-0.017351236839,0.010879253267,-0.073760407956,0,11,300.2449174,0,4,9,14.0,-0.001,262.56999356459784,571.573,198.709799
A-2115,CCCCCCCC(=O)SCCC[Si](OCC)(OCC)OCC,-5.832680461,22,63.0,3.852,-0.001042438032,0.0042272677419999,-0.01580107694,0,9,328.33041610000004,0,4,15,19.0,0.0,309.93500697406466,505.42800000000005,213.997122
A-4305,CCCCOCCOCCOCOCCOCCOCCCC,-1.301635776,23,63.0,3.638,-0.000140475667,0.005352408461,-0.0098591033669999,0,7,300.1789398,0,6,27,20.0,0.0,271.51435959064446,590.151,185.803185
A-3306,CCCCCCCCCCCC[N+](C)(C)CC(O)C[S]([O-])(=O)=O,0.286518104,23,63.0,8.962,-0.008608944081,0.0131953317809999,-0.041552931123,0,10,314.2516206,1,4,12,22.0,0.0,292.5075685474624,535.5509999999999,197.846569
A-3447,O[P](O)(=O)CN(CCCCCCN(C[P](O)(O)=O)C[P](O)(O)=O)CCCCCCN(C[P](O)(O)=O)C[P](O)(O)=O,-0.087765578,39,114.0,48.85,-0.945289891675,0.067573333751,-1.161480112105,0,34,641.0625037000001,3,14,32,22.0,0.0,153.0297788702753,916.901,365.246772
B-3452,FC(OC(F)(F)F)C(F)(F)Oc1ccc(NC(=O)NC(=O)c2c(F)cccc2F)cc1Cl,-6.9675,32,90.0,10.158,-0.004325947798,0.022895693885,-0.0254337415299999,0,36,483.6336993,2,4,14,13.0,0.0,326.8787184696492,555.1469999999999,219.633967
A-3067,Oc1c(Br)c2ccccc2nc1C3C(=O)c4ccccc4C3=O,-4.867097266,23,63.0,4.678999999999999,-0.0030554018609999,0.005498216219,-0.022810835117,0,10,358.1016919,1,3,14,14.0,0.0,251.168653332582,442.825,202.039179
A-5991,Cc1cc(Cl)cc2SC(/C(=O)c12)=C/3Sc4cc(Cl)cc(C)c4C3=O,-7.931983782,22,66.0,5.744,-0.000219662887,0.004489590846,-0.0054815116859999,0,14,383.227506,0,2,6,12.0,0.0,294.06567346215394,489.695,234.608763
A-5854,O=C1N2c3cccc4cccc(N=C2c5ccccc15)c34,-7.2557403260000015,21,57.0,5.561,-0.001919718348,-0.001349966996,-0.015784703439,0,3,260.20605750000004,2,1,12,16.0,0.0,218.95256310009705,384.824,177.173223
A-690,O=C1C(c2ccc3ccccc3n2)C(=O)c4ccccc14,-4.701186127,21,57.0,9.131,-0.002526535398,0.0018388775889999,-0.020531179485,0,3,262.1987593,1,2,13,15.0,0.001,230.00833535130695,400.882,176.23171000000002
A-5516,OC1=Cc2ccccc2NC1=C3C(=O)c4ccccc4C3=O,-7.046360074,22,60.0,9.987,-0.0043385797649999,0.006477689635,-0.038972211167,0,6,278.1981642,1,3,15,16.0,0.0,236.2789900077795,414.418,181.109445
A-5278,[O-][S](=O)(=O)c1cc2ccc(nc2c(c1)[S]([O-])(=O)=O)C3C(=O)c4ccccc4C3=O,-0.377836954,29,81.0,25.397,-0.029277770868,0.030792148352,-0.230623179817,0,21,422.3247636,1,8,13,14.0,0.0,302.9999035109268,528.71,253.248328
E-1036,c(c(cc(c1ccc2)c2)cc(c3ccc4)c4)(c1)c3,-8.6,18,48.0,0.0,-0.0,-0.00594667719,-0.005535017497,0,0,216.1932462,0,0,9,13.0,0.0,132.4078300113207,414.67,162.024874
B-3566,c1ccc2cc3c(ccc4ccccc34)cc2c1,-7.3854,18,48.0,0.89,-1.49593e-07,-0.005454423271,-0.005429407042,0,0,216.1932462,0,0,9,15.0,0.0,204.39853277556404,380.345,161.36795800000002
B-3581,c1ccc2c(c1)c3ccccc3c4ccccc24,-6.7447,18,48.0,0.0,-3.21385e-07,-0.005005497328,-0.005347040054,0,0,216.1932462,0,0,9,10.0,0.0,198.43529633056067,349.04,160.026817
B-3582,c1ccc2c(c1)ccc3c4ccccc4ccc23,-8.0575,18,48.0,0.0,-2.70397e-07,-0.005109650367,-0.005365569041,0,0,216.1932462,0,0,8,12.0,0.0,198.6405917998047,356.30300000000005,160.027302
B-863,c1ccc2c(c1)ccc3ccc4ccccc4c23,-7.8207,18,48.0,0.217,-2.02763e-07,-0.004814784621,-0.004787192257,0,0,216.1932462,0,0,6,9.0,0.0,199.9909852453546,335.742,158.852276
B-2402,ClC1=C(Cl)C2(Cl)C3CCC4C(CCC3C1(Cl)C2(Cl)Cl)C5(Cl)C(=C(Cl)C4(Cl)C5(Cl)Cl)Cl,-13.1719,24,84.0,0.047,-1.4311e-08,0.006886280434,-0.007738117841,0,36,641.6284972,0,0,16,8.0,0.0,409.4622381596628,633.738,326.097288
B-4285,c1ccc2nc(ccc2c1)c3ccc4ccccc4n3,-5.4002,20,54.0,0.001,-6.55995e-07,-0.006567651282,-0.0066620725379999,0,0,244.2066526,2,0,14,16.0,0.0,231.04111417530652,406.061,175.178182
A-2566,[O-][N+](=O)c1ccc(O[P](=S)(Oc2ccc(cc2)[N+]([O-])=O)Oc3ccc(cc3)[N+]([O-])=O)cc1,-5.678834198,31,90.0,10.29,-0.013308945943,0.033525887979,-0.040192688736,0,19,465.2465495,3,8,17,23.0,0.0,353.9445550639499,576.508,266.206858
B-2650,O=C1N=CNc2nc(c3ccccc3)c(nc12)c4ccccc4,-3.1766,23,63.0,6.205,-0.001390669432,-0.002500458757,-0.014267903254,0,5,288.219464,4,1,13,15.0,0.0,248.74108749429607,409.594,191.160542
A-2473,Cc1ccc(cc1N=C=O)N2C(=O)N(c3ccc(C)c(c3)N=C=O)C2=O,-5.03682594,26,72.0,1.413,-0.003846077193,0.014424355027,-0.005001399794,0,8,336.2176787,4,4,21,17.0,-0.001,279.4234222071412,520.755,206.134367
B-3241,CCOC(=O)COC(=O)c1cc(Oc2ccc(cc2Cl)C(F)(F)F)ccc1[N+]([O-])=O,-5.8729,29,84.0,17.185,-0.004922326144,0.020754860149,-0.038431864391,0,24,434.64393089999993,1,7,18,19.0,0.0,321.9985150800616,539.034,225.113758
B-1922,Nc1cc2c3ccccc3ccc2c4ccccc14,-6.1958,19,51.0,5.892,-8.530765e-06,-0.006900383044,-0.016836237573,0,1,230.1999494,1,0,11,13.0,0.001,209.26270225386983,369.811,166.20488500000002
B-774,OC(=O)c1ccccc1C(=O)Nc2cccc3ccccc23,-3.1633,22,60.0,16.434,-0.00567883833,0.003932615821,-0.059853944364,0,6,278.1981642,1,3,15,17.0,0.0,241.4660742553176,424.638,181.195882
A-201,c1ccc(cc1)c2ccc(cc2)c3ccccc3,-6.183335848,18,48.0,0.01,-4.11379e-07,-0.005624201882,-0.006735284677,0,0,216.1932462,0,0,11,14.0,0.001,207.36842563675648,392.1830000000001,158.664647
B-355,c1ccc(cc1)c2cccc(c2)c3ccccc3,-5.183,18,48.0,0.56,-5.77759e-07,-0.005625700153,-0.0067505712599999,0,0,216.1932462,0,0,10,14.0,-0.001,207.37592861672343,392.288,157.65651200000002
B-292,c1ccc(cc1)c2ccccc2c3ccccc3,-5.2692,18,48.0,0.001,-3.21549e-07,-0.005005119013,-0.0053472196959999,0,0,216.1932462,0,0,9,14.0,0.001,208.3474710056432,349.014,160.026554
A-5730,[O-][N+](=O)c1cc(Cl)c(N=Nc2ccc(cc2)N(CCC#N)CCC#N)c(Cl)c1,-7.115252612000001,27,78.0,20.388,-0.00630139146,0.002420768675,-0.067858939314,0,12,403.1381505,6,2,28,17.0,0.0,324.9236524817445,625.943,240.546872
C-2444,ClC1=CC(=C(COC(C[N]2C=CN=C2)C3=CC=C(Cl)C=C3Cl)C=C1)Cl,-5.08,23,69.0,4.428999999999999,-0.000132041015,0.001150192236,-0.00832858788,0,15,402.0178079,2,1,19,13.0,-0.001,317.71731987338933,531.396,237.374277
F-1119,ClC1=CC(Cl)=C(C(CN2C=CN=C2)OCC2=C(Cl)C=CC(Cl)=C2)C=C1,-3.54,23,69.0,17.149,-0.000433700077,0.0004145432039999,-0.040711932453,0,14,402.0178079,2,1,14,14.0,0.0,316.9928698430172,524.578,238.382773
A-1969,Cc1ccc(Cl)cc1NC(=O)c2cc3ccccc3cc2O,-5.238559032,22,60.0,9.768,-0.002222628664,0.000721031081,-0.026157849871,0,8,297.6516968,1,2,9,16.0,0.0,258.52647678129097,441.532,191.051698
A-5864,CC(=O)C(N=Nc1ccccc1C(F)(F)F)C(=O)Nc2ccc3NC(=O)Nc3c2,-7.455526832999999,29,81.0,13.349,-0.005314463219,0.0116995955049999,-0.031361042341,0,16,391.2201865,5,3,22,18.0,0.0,312.025097429021,510.378,217.77603
B-3349,CNC1=C(C(=O)C(O1)c2ccccc2)c3cccc(c3)C(F)(F)F,-3.9788,24,66.0,4.808,-0.000562570085,0.006331757602,-0.003662481887,0,12,319.1939687,1,2,10,14.0,0.0,254.60317612228167,457.349,184.834264
A-2158,Cc1ccc2oc(\C=C\c3oc4ccc(C)cc4n3)nc2c1,-6.000481949,22,60.0,1.735,-0.000281267759,-0.002739177861,-0.007657465455,0,6,276.2054625,2,2,13,14.0,0.0,241.73287623592583,446.108,182.250466
B-1905,[O-][N+](=O)c1ccc(cc1)N=Nc2ccc(Nc3ccccc3)cc2,-7.5229,24,66.0,24.4,-0.006135022463,0.0033560055009999,-0.05312996328,0,5,304.2188689,4,2,21,18.0,-0.001,270.7231241336528,470.559,193.865484
A-2932,[O-][N+](=O)c1ccc(Nc2ccc(Nc3ccccc3)c(c2)[S]([O-])(=O)=O)c(c1)[N+]([O-])=O,-2.199137363,30,84.0,20.15,-0.018718611497,0.023812595237,-0.089585372551,0,16,416.2806809,4,7,26,21.0,0.0,318.7443112661402,526.229,245.867141
F-293,C1=CC=C(C=C1)OP(=O)(OC2=CC=CC=C2)OC3=CC=C(C=C3)[N+](=O)[O-],-4.96,26,72.0,10.324000000000002,-0.006519479337,0.010362810988,-0.0250690038689999,0,12,357.1701409,1,6,14,17.0,0.0,286.31975640534216,495.528,215.83513
A-2117,Oc1c(cccc1c2ccccc2)c3ccccc3,-5.683910105,19,51.0,6.336,-6.643041599999999e-05,-0.004154268111,-0.0101246836659999,0,1,232.1926511,0,1,10,17.0,0.0,215.2214358636916,380.784,163.216115
C-2434,CSC1=CC=C(C=C1)C(=O)C2=CC(=CC3=C2OC=C3)CC(O)=O,-5.51,23,63.0,17.684,-0.006126542654,0.013856650488,-0.037735133098,0,9,312.2556533,0,4,16,19.0,0.0,263.3000745428128,457.315,194.296864
A-2485,[O-][N+](=O)c1ccc(N=Nc2ccc(cc2)N(CCC#N)CCC#N)c(Cl)c1,-4.281954413,26,75.0,16.308,-0.0049379585739999,1.4485024e-05,-0.055060135946,0,9,367.6852129,6,2,25,17.0,0.0,307.4044638268184,581.561,226.64437200000003
D-1087,[O-][N+](=O)c1cc(ccc1Nc2ccccc2)[S](=O)(=O)Nc3ccccc3,-6.269,26,72.0,4.192,-0.004953290639,0.004608491313,-0.036818867224,0,10,354.2757629,3,4,18,18.0,0.0,306.23478429601977,443.781,220.637226
A-5839,CC(=O)C(N=Nc1ccccc1C(O)=O)C(=O)Nc2ccc3NC(=O)Nc3c2,-7.330901471000002,28,78.0,11.094,-0.006127046574,0.012654663402,-0.0334754464699999,0,9,366.2237869,5,5,30,24.0,-0.001,209.1628653340088,560.499,218.976916
A-535,Cc1ccccc1NC(=O)c2cc3ccccc3cc2O,-4.623441954,21,57.0,6.801,-0.002220463583,-0.000665722581,-0.024229323751,0,5,262.1987592,1,2,13,13.0,0.0,241.02922662576455,411.719,176.100222
A-6010,CCOC(=O)C(C#N)=C(c1ccccc1)c2ccccc2,-7.744015885,21,57.0,12.389,-0.000121285779,-0.005247800192,-0.025059429947,0,4,262.1987593,1,2,13,18.0,0.0,244.1083348327193,409.517,177.237983
A-2322,Oc1ccc(cc1)C(c2ccc(O)cc2)c3ccccn3,-4.523907797,21,57.0,9.02,-0.004520665844,0.006845062922,-0.028242059142,0,4,262.1987592,1,2,14,13.0,0.0,234.46966843777267,412.656,168.75548
A-1981,COc1ccc(NC(=O)c2cc3ccccc3cc2O)cc1,-5.263224655,22,60.0,3.891,-0.002438000668,-0.0007576140489999,-0.041075864459,0,5,278.1981642,1,3,17,15.0,0.001,248.21758210116,438.576,182.992437
A-1456,COc1ccccc1NC(=O)c2cc3ccccc3cc2[O-],-5.176510186000001,22,60.0,14.336,-0.004164133067,0.003006539289,-0.101031608111,0,6,278.1981642,1,3,16,19.0,0.0,249.0027713342953,394.931,185.461579
C-2389,OC(=O)CCC1=NC(=C(O1)C2=CC=CC=C2)C3=CC=CC=C3,-2.24,22,60.0,30.62,-0.007012710333,0.007707881765,-0.074989232789,0,6,278.1981642,1,3,16,15.0,0.001,241.1203034595173,433.134,180.456089
A-5709,S=[P](Oc1ccccc1)(Oc2ccccc2)Oc3ccccc3,-6.954694347,23,63.0,2.772,-0.0004983530129999,-0.000521591659,-0.003610453778,0,8,327.2300104,0,3,9,14.0,0.0,278.01296646390307,447.643,215.19705
C-1023,O=[P](OC1=CC=CC=C1)(OC2=CC=CC=C2)OC3=CC=CC=C3,-5.66,23,63.0,2.835,-0.004737780035,0.000396152994,-0.010816666657,0,7,311.1646279,0,4,15,16.0,0.0,260.60348808496326,460.653,200.568439
A-939,O=[P](c1ccccc1)(c2ccccc2)c3ccccc3,-2.877472795,20,54.0,3.427,-0.001376070136,-0.001203890442,-0.007811885005,0,1,263.1664131,0,1,15,16.0,0.0,235.94895265959389,420.359,186.050975
A-2434,c1ccc(cc1)P(c2ccccc2)c3ccccc3,-6.2013011,19,51.0,1.49,-0.000789035239,-0.002809415763,-0.0050507888,0,1,247.1670082,0,0,10,16.0,0.0,231.3435120305999,388.592,182.150616
F-1178,COCC1COC2=C(C=C3C(=C2)N=CN=C3NC2=CC(Br)=CC=C2)O1,-3.22,24,69.0,5.136,-0.000286473678,-0.004123623768,-0.011399435756,0,11,386.1150984,3,3,14,16.0,0.0,278.7379030582065,508.807,217.095431
D-2100,CCOC(=O)C(C)Oc1cccc(Oc2sc3cc(Cl)ccc3n2)c1,-5.674,23,69.0,24.556,-0.0028774572759999,0.00940837909,-0.033899288923,0,11,361.7152941,1,4,17,16.0,0.0,298.2904677006821,534.89,222.301803
C-1035,CCOC(=O)C(C)OC1=CC=C(OC2=NC3=C(S2)C=C(Cl)C=C3)C=C1,-5.67,23,69.0,24.804,-0.002900511506,0.00961467463,-0.034222894806,0,10,361.7152941,1,4,15,17.0,0.0,298.2811133897247,532.956,222.241784
B-3112,CCOC(=O)C(C)Oc1ccc(Oc2oc3cc(Cl)ccc3n2)cc1,-5.6042,24,69.0,15.901,-0.002535010982,0.006402375636,-0.020133170743,0,10,345.64991160000005,1,5,19,18.0,0.0,286.05138980782465,538.007,205.347182