Name,SMILES,Solubility,AtomNum,DegFreedom,Dipole,Ghb,Gsasa,Gsolv,HNum,LP,MolWt,NNum,ONum,PiCenters,PiDeloc,Quadrupole,Volume,SASA,Polarizabilty
B-6,C[C@]12CC[C@H]3[C@@H](CCc4cc(O)ccc34)[C@@H]1CC[C@@H]2O,-4.8789,20,54.0,5.796,-0.005181346397,0.007553101607,-0.031400797853,0,4,248.192056,0,2,12,15.0,0.0,222.5861234877782,383.736,164.51258
B-73,C[C@]12CC[C@H]3[C@@H](CCc4cc(O)ccc34)[C@@H]1CC[C@H]2O,-4.8441,20,54.0,4.774,-0.003828593574,0.006667350009,-0.02377806473,0,5,248.192056,0,2,9,12.0,0.0,218.17024113952056,387.792,166.6272
F-483,CC12CCC3C4=C(C=C(O)C=C4)CCC3C1CC(O)C2O,-4.0,21,57.0,6.777,-0.005437842224,0.011959625532,-0.033356084975,0,7,264.191461,0,3,12,14.0,-0.001,229.5060142941996,408.415,171.98152
A-273,C=CC(=O)OCC1CCC2C3CC(CC3COC(=O)C=C)C12,-4.493085819,22,60.0,2.556,-0.000806685667,0.007459291387,-0.0036494338569999,0,8,280.1908659,0,4,17,16.0,0.0,255.21481036325545,524.384,173.681837
A-4605,N#CC1(CC[NH+](CC1)Cc2ccccc2)[NH+]3CCCCC3,-2.245992211,21,57.0,6.272,-3.080034e-06,-0.008267895686,-0.295725826805,0,1,258.21335580000004,3,0,9,16.0,0.0,253.8448979591413,398.274,171.154649
C-1272,COC1=CC2=C(CC3C4CCCCC24CCN3C)C=C1,-3.48,20,54.0,3.988,-5.3489259e-05,-0.0062100043339999,-0.015923860482,0,2,246.1993543,1,1,17,14.0,0.0,161.19934410229462,433.658,175.40254199999998
C-1347,CCN(CC)CCCC(C)NC1=CC=NC2=C1C=CC(=C2)Cl,-2.83,22,60.0,4.085,-3.788211e-06,-0.006291074206,-0.0234637773939999,0,4,293.6662934,3,0,13,19.0,0.0,267.10440695892726,508.58,198.768427
C-2115,CC(C)CC1=CC=C(C=C1)C(C)C(=O)OCC(=O)N(C)CC(N)=O,-3.41,24,66.0,7.871,-0.003721695263,0.007486874542,-0.024425185064,0,10,308.2042723,2,4,21,18.0,0.0,289.05340186117945,515.056,191.235365
B-4348,CCCCOC(=O)N(C)SN(C)C(=O)Oc1cccc2CC(C)(C)Oc12,-4.5412,25,72.0,18.974,-0.0036503239669999,0.004588493948,-0.053600349596,0,12,356.2684646,1,5,18,17.0,0.001,312.4568817500138,523.942,222.291973
C-2292,CCCN1C(=O)N(CCC)C2=C([NH]C(=N2)C(C3CC3)C4CC4)C1=O,-4.59,24,66.0,4.298,-0.00217078596,0.0007956800479999,-0.026145307023,0,10,304.2188689,4,2,12,15.0,0.001,258.6084890352663,516.409,198.056575
B-2597,CC1CC(C)(C)c2cc(C(C)=O)c(C)cc2C1(C)C,-5.3154,19,51.0,1.484,-0.001698517046,0.000565916396,-0.022119420233,0,4,232.1926511,0,1,10,14.0,0.0,254.84591221160687,404.4980000000001,164.80590700000002
B-1642,CC1COCc2cc3c(cc12)C(C)(C)C(C)C3(C)C,-5.1693,19,51.0,14.399,-2.8326724e-05,-0.002485098754,-0.024796664111,0,4,232.1926511,0,1,7,16.0,0.0,251.7763051998637,409.4380000000001,169.038475
B-3306,CC(C)C12CCC(C)(O1)C(C2)OCc3ccccc3C,-3.6391,20,54.0,15.797,-0.00210392186,0.002139978876,-0.02975504276,0,4,248.192056,0,2,17,17.0,0.0,175.9776095773952,487.663,170.42703799999998
C-1665,CC12CCC3C(CCC4=CC(=O)CCC34)C1CCC2O,-3.02,20,54.0,7.274,-0.005149263033,0.007393248957,-0.034192414683,0,4,248.192056,0,2,9,12.0,0.0,227.98676247159923,392.22,169.08364
B-941,C[C@]12CC[C@H]3[C@@H](CCC4=CC(=O)CC[C@H]34)[C@@H]1CC[C@@H]2O,-1.9484,20,54.0,3.32,-0.004525184197,0.007825634296,-0.019220201252,0,4,248.192056,0,2,13,13.0,0.0,223.33782676515884,384.18,161.24238799999998
A-2950,C[C@]12CC[C@H]3[C@@H](CCC4=C3CCC(=O)C4)[C@@H]1CC[C@@H]2O,-4.947028744,20,54.0,6.597,-0.00554839615,0.00751170363,-0.034620008876,0,4,248.192056,0,2,12,13.0,0.0,228.9402255089716,387.879,167.004478
B-2978,CC\C=C(/C)C(OC(=O)C1C(C=C(C)C)C1(C)C)C#C,-6.3931,20,54.0,3.547,-0.001077314721,-0.0029909742979999,-0.025362566935,0,7,248.192056,0,2,8,15.0,-0.001,259.945359214789,504.588,174.510774
A-2033,CC(C)CCOC(=O)c1ccccc1C(=O)OCCC(C)C,-5.444898911,22,60.0,11.984000000000002,-0.002461057084,0.002859626946,-0.019900095539,0,8,280.1908659,0,4,15,18.0,0.0,259.98834678671074,497.841,180.011644
F-335,CCCCCOC(=O)C1=C(C(=O)OCCCCC)C=CC=C1,-3.49,22,60.0,10.714,-0.002834100027,0.0020203031119999,-0.02792750491,0,8,280.1908659,0,4,11,15.0,0.0,254.6872576082367,511.21,182.900157
A-1399,CCC(COC(=O)C(C)=C)(COC(=O)C(C)=C)COC(=O)C(C)=C,-4.226234297,24,66.0,11.828,-0.001567179646,0.006237636337,-0.042011692849,0,13,312.18967569999995,0,6,14,17.0,0.001,280.12679599198844,514.126,190.818568
A-2666,CCCCCCCCOC(=O)[C@@H](C)Oc1ccc(Cl)cc1C,-6.514367091,21,60.0,9.643,-0.002169286384,0.003836391412,-0.015204056361,0,9,299.6443985,0,3,15,17.0,-0.001,273.687244407808,543.61,191.670098
C-1978,CCCCCCCCCC(=O)OC1=CC=C(NC(C)=O)C=C1,-4.53,22,60.0,5.984,-0.000573981063,0.002211450096,-0.014742753497,0,6,278.1981642,1,3,12,17.0,0.0,257.94445378576603,510.006,183.454792
C-552,CCCCN1CCCCC1C(=O)NC2=C(C)C=CC=C2C,-3.22,21,57.0,10.923,-3.8342932e-05,-0.006026549142,-0.0213668568129999,0,5,260.20605750000004,2,1,14,16.0,0.0,249.4006439061609,431.995,177.889985
A-1961,CCCCC\C(=C/c1ccccc1)C(OCC)OCC,-5.172056518,20,54.0,8.455,-0.000207449995,-0.002684773345,-0.01885073243,0,4,248.192056,0,2,11,14.0,0.0,245.6587048007268,446.398,172.378434
B-2895,CC(C)CCCC(C)C\C=C\C(C)=C\C(=O)OCC#C,-4.7239,20,54.0,6.65,-0.000702009608,0.000189428259,-0.014414309229,0,5,248.192056,0,2,9,18.0,0.001,264.0051915919564,536.974,173.390527
A-5073,COC(=O)CCc1cc(c(O)c(c1)C(C)(C)C)C(C)(C)C,-5.123582907,21,57.0,4.944,-0.002022650416,0.00474483265,-0.01454986485,0,7,264.191461,0,3,18,15.0,0.0,274.3368522784237,498.638,174.092507
C-1239,CC(C)(C)NCC(O)COC1=C(C=CC=C1)C2CCCC2,-1.84,21,57.0,2.91,-0.002552185836,0.000621278928,-0.018854265745,0,7,262.1987593,1,2,12,14.0,0.0,259.9136730032936,419.669,172.23666200000002
B-2841,CC(C)(C)NC[C@@H](O)COc1ccccc1C2CCCC2,-1.6195,21,57.0,6.198,-0.002477149403,0.000567704346,-0.016877596762,0,6,262.1987593,1,2,19,18.0,0.0,254.8392640349464,447.282,172.848219
F-863,CCCCCCCCCCOC1=CC(O)=C(C(C)=NO)C=C1,-4.89,22,60.0,8.088,-0.003615732488,0.007727206725,-0.022864113188,0,5,278.1981642,1,3,12,18.0,0.0,248.09605202372987,565.289,184.996323
B-3266,CCCCCCCCCCCCNC(=O)c1cccnc1,-3.2078,21,57.0,2.635,-0.002649442346,-0.00320374001,-0.028139458265,0,4,260.20605750000004,2,1,6,18.0,0.0,247.9326330503268,522.303,180.050047
B-1488,CC(C)(C)c1cc(c(O)c(c1)C(C)(C)C)C(C)(C)C,-3.875,19,51.0,1.711,-0.001025844212,-0.0021834370389999,-0.01752192684,0,6,232.1926511,0,1,14,15.0,0.0,260.00652490579347,426.968,160.399233
A-2089,CCC(C)c1cc(C(C)CC)c(O)c(c1)C(C)CC,-5.549793345,19,51.0,4.268,-0.000553971794,-0.004141257943,-0.024991604001,0,8,232.1926511,0,1,7,14.0,0.0,239.7553416401612,438.529,166.81475
A-2099,CC1(C)CCCC2(C)C1CCC34COC(C)(CCC23)O4,-5.645384837000001,20,54.0,5.962999999999999,-0.000401899422,0.001937210659,-0.009237194496,0,3,248.192056,0,2,12,11.0,0.0,243.5603695999364,391.352,172.034996
A-1921,CCCCCCCCCCCCO[S](=O)(=O)c1ccccc1,-3.543437239,22,60.0,4.269,-0.008363536558,0.0035984456079999,-0.039293072509,0,8,296.25624839999995,0,3,9,17.0,0.0,262.69445952513536,544.261,198.232828
A-3967,CCCCC(CC)CCCCCc1ccc(cc1)[S]([O-])(=O)=O,-0.096905651,22,60.0,4.462,-0.01379752366,0.008005405556,-0.0715966520409999,0,7,296.25624839999995,0,3,12,18.0,0.0,262.71640309527777,535.082,203.119544
A-5868,CC(=C)C(=O)OCCCCCCCCCCOC(=O)C(C)=C,-6.350206051,22,60.0,5.852,-0.00458439895,0.00674502235,-0.027073785573,0,8,280.1908659,0,4,16,22.0,0.0,265.57406050861874,554.951,180.447298
C-1855,OCC1OC(OCC2OC(OC3(CO)OC(CO)C(O)C3O)C(O)C(O)C2O)C(O)C(O)C1O,0.3,34,96.0,2.427,-0.01066093249,0.050637088909,-0.0471672590479999,0,27,472.1837249,0,16,31,23.0,0.0,334.9438828371538,548.82,237.063865
B-1046,OC[C@H]1O[C@H](OC[C@H]2O[C@H](O[C@]3(CO)O[C@H](CO)[C@@H](O)[C@@H]3O)[C@H](O)[C@@H](O)[C@@H]2O)[C@H](O)[C@@H](O)[C@H]1O,-0.3962,34,96.0,12.725,-0.010827303697,0.053038192631,-0.044770809846,0,27,472.1837249,0,16,28,22.0,0.001,331.4235782343889,598.742,234.63497
A-1873,CCCCOC(=O)CC(O)(CC(=O)OCCCC)C(=O)OCCCC,-3.545270972,25,69.0,3.905,-0.0054857345999999,0.0142489285079999,-0.020686142044,0,11,328.1890806,0,7,29,19.0,-0.001,293.4387302439933,582.5509999999999,198.491355
A-5725,CC(C)(C)CCCCC1(OO1)C(=O)OC(C)(C)CC(C)(C)C,-6.971234419,22,60.0,8.561,-0.000757029699,0.00609202646,-0.016882668806,0,9,280.1908659,0,4,14,14.0,0.001,286.84253433637537,474.411,171.159583
B-572,CCCCOC(=O)CCCCCCCCC(=O)OCCCC,-3.8955,22,60.0,0.502,-0.004260219412,0.006645512106,-0.023407262639,0,6,280.1908659,0,4,21,15.0,0.0,260.6204419752495,567.747,183.389484
A-1423,CCCCCCOC(=O)CCCCC(=O)OCCCCCC,-5.082600349,22,60.0,0.804,-0.003911625327,0.006638107971,-0.019149013303,0,6,280.1908659,0,4,26,19.0,0.0,260.6934465804287,568.1990000000001,183.510427
A-5423,CCCCCCC(=O)OCC(CC)(CO)COC(=O)CCCC,-5.982567027000001,23,63.0,3.5,-0.003122915155,0.008473600456,-0.019137691418,0,9,296.1902708,0,5,20,17.0,0.0,276.5083398876644,535.184,187.029051
A-2474,CCCCCCCCCCCC(=O)OCC(O)[C@H]1OC[C@@H](O)[C@@H]1O,-5.06253686,24,66.0,19.099,-0.005035520003,0.014343428088,-0.040759221787,0,8,312.18967569999995,0,6,16,21.0,0.001,274.72000971224827,562.049,191.201784
B-1376,CCOCCOC(=O)CCCCCCCCC(=O)OCCOCC,-3.1972,24,66.0,4.545,-0.004259352716,0.010947346324,-0.02157376581,0,8,312.18967569999995,0,6,23,18.0,-0.001,278.8160216099136,602.8480000000001,193.675187
A-1099,CCCCOCCOC(=O)CCCCC(=O)OCCOCCCC,-4.958733139,24,66.0,5.752999999999999,-0.004317746567,0.012431524103,-0.020659947441,0,9,312.18967569999995,0,6,28,17.0,0.0,278.88612495480567,597.875,193.750224
B-382,CCC(CC)C(=O)OCCOCCOCCOC(=O)C(CC)CC,-3.2386,24,66.0,0.7340000000000001,-0.003379890372,0.007656722097,-0.0307801841019999,0,8,312.18967569999995,0,6,20,24.0,0.001,281.9002617788304,584.6,195.542346
A-293,CCCCC(CC)COC(=O)OOC(=O)OCC(CC)CCCC,-2.595175443,24,66.0,5.268,-0.002144073043,0.006117677153,-0.025989604641,0,12,312.18967569999995,0,6,12,13.0,0.0,294.7071158743092,573.341,195.306562
B-2814,CCCCCCC(CC=CCCCCCCCC(O)=O)O[S](O)(=O)=O,-0.5781,25,69.0,8.138,-0.017028956519,0.019713834434,-0.050302345803,0,14,344.2544631,0,6,8,18.0,-0.001,290.69343925804367,599.139,212.582836
B-3426,O=C1CCCCCCCCCCCCCCCCCN1,-2.8474,20,54.0,13.17,-0.003277454817,-0.000599624273,-0.02460995797,0,2,246.1993543,1,1,12,19.0,0.0,234.12716738725743,446.027,173.343795
B-3458,CCCN(CC)CC1COC2(CCC(CC2)C(C)(C)C)O1,-2.8014,21,57.0,2.269,-0.001547380293,-0.0007067955779999,-0.0227322426979999,0,6,262.1987592,1,2,15,13.0,-0.001,263.9465391416861,499.658,174.745157
A-192,CCCCCCCCCCCCCCCC(=O)NCC(O)=O,-5.593122622,22,60.0,19.859,-0.006775919427,0.009156948794,-0.050601322403,0,6,278.1981642,1,3,13,18.0,0.0,258.6652413210461,570.225,184.06568
A-5142,CCCCCCCCCCCCN(CCC(O)=O)CCC([O-])=O,-0.040729633,23,63.0,46.108,-0.018266241298,0.0165789204939999,-0.2019135243079999,0,9,294.1975691,1,4,18,22.0,-0.001,266.66182904494667,586.2090000000001,192.252553
A-5210,CC(O)CN(CC(C)O)C(=O)CCCCC(=O)N(CC(C)O)CC(C)O,0.210993363,26,72.0,6.438,-0.00653405478,0.022943911252,-0.02646596964,0,10,340.2030821000001,2,6,31,20.0,0.0,309.263302976492,585.81,202.813672
A-5082,CC(C)CCCC(C)CCCC(C)CCCC(C)=O,-5.474677517999999,19,51.0,9.542,-0.000967952685,-0.000522591602,-0.015255467797,0,2,232.1926511,0,1,7,18.0,0.0,256.815498512285,506.783,167.127219
A-5978,CC(CCOC(=O)CC(C)CC(C)(C)C)CC(C)(C)C,-8.277966587,20,54.0,4.156000000000001,-0.000597533585,0.000139521018,-0.012021072235,0,7,248.192056,0,2,12,15.0,0.001,275.74084810203,523.5930000000001,165.39191599999998
C-1592,CCCCCCCCCCCCCCCCCC(O)=O,-4.98,20,54.0,44.028,-0.009231010359,0.0048142261229999,-0.1202593857719999,0,5,248.192056,0,2,4,14.0,0.0,240.75059312077323,537.863,172.31526200000002
A-5526,CCCCCCCCCCCCCCCCOC(C)=O,-7.397152994,20,54.0,5.8420000000000005,-0.001394240763,-0.0006682938099999,-0.025615629019,0,4,248.192056,0,2,7,19.0,-0.001,244.19291384232383,535.743,172.875725
A-2727,CCCCCCCCCCCC(=O)OCCCCCC,-6.755087841,20,54.0,16.937,-0.00255006651,-0.000351950716,-0.03403046863,0,5,248.192056,0,2,8,14.0,0.0,244.17103911989884,537.779,173.956996
A-1431,CCCCC(CC)CCCCCC(C)CCCC(O)=O,-5.056117837,20,54.0,27.439,-0.008097448795,0.004908042196,-0.094174338099,0,4,248.192056,0,2,10,15.0,0.0,246.17581719306105,526.57,172.557415
A-5977,CCCCCCCCCCOC(=O)C(CC)CCCC,-8.193986458,20,54.0,5.398,-0.001553578699,-0.00196896313,-0.026606442702,0,5,248.192056,0,2,7,15.0,0.001,245.96292423101195,530.081,174.92320800000002
A-2057,CCCCCCC(O)CCCCCCCCCCC(O)=O,-5.488370089,21,57.0,37.825,-0.009723608379,0.0113117636039999,-0.107170203133,0,6,264.191461,0,3,9,15.0,-0.001,249.3435331969332,543.763,176.337619
A-2298,CCCCCCCCCCCCCCCCCC,-7.627539949,18,48.0,1.5119999999999998,-3.085142e-06,-0.007287050769,-0.02258600653,0,2,216.1932462,0,0,0,17.0,0.0,227.4847988098914,508.136,164.548315
B-2922,CCCCNC1(CCCCC1)[P](=O)(OCCCC)OCCCC,-3.3105,23,63.0,11.508,-0.002498347417,-0.000770766948,-0.0168450731309999,0,4,309.17192620000003,1,3,24,20.0,0.0,284.62301554087827,513.744,209.532689
A-2623,CC(C)CCCCCCCCCCCCCCCO,-6.256077616000002,19,51.0,11.968,-0.001102136781,-0.000626379275,-0.0175410607599999,0,2,232.1926511,0,1,5,15.0,0.0,235.38302161185365,514.53,166.758627
A-2584,CCCCCCCCCCCCCCCCCCO,-5.432168875,19,51.0,9.547,-0.001225898452,-0.000719364982,-0.016612982549,0,2,232.1926511,0,1,3,19.0,0.0,232.7625998968313,521.499,168.214665
A-1475,CCCCCCC(O)CCCCCCCCCCCO,-5.156094631,20,54.0,30.509,-0.003804701912,0.0053950677009999,-0.046519061365,0,4,248.192056,0,2,6,14.0,0.001,240.60682464980133,534.249,172.814022
A-5110,CC(C(C)(C)C)C(C)(C)SSSC(C)(C)C(C)C(C)(C)C,-9.129966133,19,57.0,2.094,-6.0860169e-05,0.000180240107,-0.00800190698,0,10,312.3876084,0,0,8,14.0,0.0,342.5621953091444,462.819,207.953227
A-4957,CCCCCCCCCCCCCCCCCCN,-3.631245614,19,51.0,3.16,-7.899153e-06,-0.009460801558,-0.023980579522,0,2,230.1999494,1,0,5,16.0,0.0,236.19212495353716,524.769,169.804898
A-2379,CCCCCCCCCCCCCCCCN(C)C,-4.652434914,19,51.0,6.242999999999999,-2.93894e-06,-0.007592147626,-0.021278982186,0,3,230.1999494,1,0,2,14.0,0.001,240.61965069127828,523.495,170.431759
A-5282,CCCCCCCCCCCCN(CCCN)CCCN,-0.197711374,21,57.0,10.433,-1.2440899e-05,-0.0119551508749999,-0.039289793328,0,3,258.21335580000004,3,0,15,15.0,0.0,257.59583926511544,560.12,183.431936
B-2397,NC(N)=NCCCCCCCCNCCCCCCCCN=C(N)N,0.3322,25,69.0,4.265,-9.420765e-06,-0.016793922165,-0.032796956199,0,4,314.2401687,7,0,11,26.0,-0.001,297.4662053845131,628.211,209.641337
A-5227,CN(C)CCCN1CN(CCCN(C)C)CN(CCCN(C)C)C1,0.16421307,24,66.0,0.3979999999999999,-7.081996e-06,-0.009746719345,-0.034032083697,0,6,300.2334655,6,0,12,14.0,0.0,314.88557743215944,592.716,208.044746
A-189,CCO[Si](CCCSSCCC[Si](OCC)(OCC)OCC)(OCC)OCC,-5.676541809,28,78.0,10.955,-0.001716207002,0.003119036124,-0.061710559441,0,12,432.49024800000007,0,6,32,22.0,0.0,323.09645139852574,667.465,283.632644
A-5515,Clc1c(Cl)c(Cl)c2C3=Nc4cccc5cccc(N3C(=O)c2c1Cl)c45,-7.133614477999999,24,69.0,5.147,-0.001498439767,0.0022395154259999,-0.016123262353,0,15,402.0178079,2,1,9,13.0,0.0,289.4331052200102,476.904,236.530373
B-3280,Fc1ccc(NC(=O)c2cccnc2Oc3cccc(c3)C(F)(F)F)c(F)c1,-6.8969,28,78.0,6.909,-0.002743806841,0.012487242452,-0.029122653668,0,19,383.2082142,2,2,14,14.0,0.0,291.6911880563344,514.424,203.742111
C-1054,OC1=C(CC2=C(O)C3=CC=CC=C3OC2=O)C(=O)OC4=C1C=CC=C4,-4.27,25,69.0,2.517,-0.006273410708,0.016814208761,-0.023839467733,0,10,324.20041160000005,0,6,17,19.0,0.0,256.5539347947165,464.326,197.196317
F-880,O=S1(=O)OC2(C3=C(C=CC(O)=C3)OC3=C2C=C(O)C=C3)C2=C1C=CC=C2,-3.5,26,72.0,8.942,-0.012763397153,0.02061782209,-0.040325430407,0,14,356.265199,0,6,12,15.0,0.0,269.17930547264484,461.364,210.208222
C-2404,CC1=C2C=CC3=C(C=CC=C3)C2=CC4=CC=C(Cl)C=C14,-7.44,19,54.0,2.254,-3.90633e-07,-0.003780550983,-0.005451259017,0,5,263.65691969999995,0,0,5,12.0,0.0,231.5357892207292,398.673,180.383171
B-1891,Cc1c2ccccc2cc3c1cc(F)c4ccccc34,-7.31,20,54.0,4.702,-0.0001209434089999,-0.002561027084,-0.00779058712,0,4,247.2023853,0,0,9,14.0,0.0,220.5081433733148,376.234,168.580507
B-1898,Cc1c2ccccc2cc3c4ccccc4cc(F)c13,-7.31,20,54.0,3.757,-0.000120117077,-0.002657432979,-0.007307710269,0,5,247.2023853,0,0,8,13.0,0.0,220.5490714139372,374.8130000000001,168.524212
B-2021,Cc1cc2ccccc2c3ccc4ccccc4c13,-6.5920000000000005,19,51.0,1.197,-2.9153e-07,-0.005116940567,-0.005538976461,0,0,228.2039821,0,0,9,13.0,0.0,213.1669716531528,356.811,167.480439
B-1710,Cc1cc2c3ccccc3ccc2c4ccccc14,-6.5715,19,51.0,1.561,-4.27095e-07,-0.00522862151,-0.0060228816249999,0,1,228.2039821,0,0,8,14.0,0.0,213.98580010012645,364.599,165.583452
B-1899,Cc1c2ccccc2cc3c4ccccc4ccc13,-7.343,19,51.0,1.704,-4.13894e-07,-0.005268177947,-0.005837591341,0,0,228.2039821,0,0,10,15.0,0.0,214.24254959904985,367.357,165.851193
B-1871,Cc1c2ccccc2cc3ccc4ccccc4c13,-6.5648,19,51.0,1.008,-2.76287e-07,-0.0051268553529999,-0.0054111299,0,0,228.2039821,0,0,10,13.0,0.0,213.42257230497867,357.50300000000004,167.603453
B-1892,Cc1cccc2ccc3cc4ccccc4cc3c12,-6.644,19,51.0,3.785,-7.78768e-07,-0.005391527803,-0.007426200177,0,1,228.2039821,0,0,9,12.0,0.0,219.3731435625305,375.959,169.153417
B-1859,Cc1ccc2cc3ccc4ccccc4c3cc2c1,-6.644,19,51.0,3.4960000000000004,-4.1964e-07,-0.005438504144,-0.006650812776,0,0,228.2039821,0,0,9,12.0,0.0,222.4827796794156,379.234,169.198426
B-1860,Cc1ccc2cc3c(ccc4ccccc34)cc2c1,-6.8162,19,51.0,3.5,-4.19926e-07,-0.005438980892,-0.006649546696,0,0,228.2039821,0,0,9,12.0,0.0,222.48702971508428,379.268,169.199056
B-3466,NC(=O)c1nn(c2ccc(Cl)c(COCC(F)(F)C(F)(F)F)c2)c(n1)c3ccccc3,-5.6635,30,87.0,4.062,-0.001200938462,0.009518145352,-0.0138997696729999,0,23,446.6745581999999,4,2,15,16.0,0.0,338.1838866039386,520.0980000000001,233.283056
B-3044,CN1C=C(c2ccccc2)C(=O)C(=C1)c3cccc(c3)C(F)(F)F,-4.4384,24,66.0,6.0120000000000005,-0.000853420707,0.0044330955949999,-0.017804715369,0,12,315.2052997,1,1,12,14.0,0.0,260.5233186456708,474.524,188.518896
B-1313,Oc1ccc(cc1)C(c2ccc(O)cc2)=C3C=CC(=O)C=C3,-2.3837,22,60.0,0.068,-0.00629538055,0.013614759294,-0.029518939142,0,6,276.20219689999993,0,3,14,16.0,0.0,243.0154503077911,430.62,177.334894
F-629,O=S1(=O)OC(C2=CC=C(O)C=C2)(C2=CC=C(O)C=C2)C2=C1C=CC=C2,-3.07,25,69.0,12.039,-0.0127115417519999,0.019009772166,-0.058696086875,0,12,340.2657941,0,5,11,12.0,0.0,273.1467204895475,450.006,202.408571
A-2490,CCOC(=O)C(C)OC(=O)c1cc(Oc2ccc(cc2Cl)C(F)(F)F)ccc1[N+]([O-])=O,-6.623038672000001,30,87.0,16.867,-0.0072043148529999,0.025602720432,-0.046675975699,0,24,446.6546668,1,7,21,20.0,0.0,338.77012790859834,613.737,234.928856
B-3272,OC(c1ccccc1)c2cc(Cl)ccc2NC(=O)c3ccncc3,-5.5299,23,66.0,9.277,-0.0034678216299999,0.003646865124,-0.023439581157,0,7,323.6691359,2,2,17,19.0,0.0,273.172328030396,464.956,206.735894
G-524,CC(=O)CC(c1ccc(Cl)cc1)c2c(O)c3ccccc3oc2=O,-5.839,23,66.0,15.698,-0.002398597555,0.008483431873,-0.024161437747,0,7,327.6545394,0,4,16,16.0,0.0,275.9559411417271,459.334,202.714086
B-276,CC(=O)CC(c1ccc(Cl)cc1)C2=C(O)Oc3ccccc3C2=O,-5.836,23,66.0,14.093,-0.002367159963,0.008460398473,-0.021506282424,0,7,327.6545394,0,4,16,17.0,0.0,275.93236998073206,460.133,202.712411
C-2449,CC1(O)CC(C2=CC=C(Cl)C=C2)C3=C(O1)C4=C(OC3=O)C=CC=C4,-5.84,23,66.0,10.974,-0.000408464476,0.004546498741,-0.011684318138,0,9,327.6545394,0,4,13,16.0,0.0,265.0449600269407,448.86800000000005,200.905037
A-4056,CC(=O)Nc1ccc(NNC2=C3C(=O)C=C(C=C3C=CC2=N)[S]([O-])(=O)=O)c(c1)C(F)(F)F,-1.328818198,32,90.0,15.37,-0.016701269053,0.020155308269,-0.074294782616,0,24,453.2878164,4,5,19,18.0,0.0,337.5880826450804,639.809,253.223175
B-3396,Fc1cc2OCC(=O)N(CC#C)c2cc1N3C(=O)C4=C(CCCC4)C3=O,-5.2966,26,72.0,9.16,-0.003462283157,0.010839732149,-0.02090246369,0,10,339.2134114,2,4,17,18.0,0.0,275.21808846675583,490.991,206.506274
A-6014,COc1cc(ccc1NN=C2C=CC(=O)C=C2)N=Nc3ccc(cc3)[N+]([O-])=O,-6.963972007000001,28,78.0,13.635,-0.007708268953,0.008671580637,-0.061763698239,0,8,362.2351178,5,4,25,21.0,0.0,303.78904393228225,581.547,217.195112
B-2044,OC(=O)CN(CC(O)=O)Cc1cc2C(=O)c3ccccc3C(=O)c2c(O)c1O,-1.8077,28,78.0,10.6,-0.0093205968279999,0.0304932382399999,-0.047208225033,0,13,370.2059247,1,8,23,20.0,-0.001,289.02934270794435,513.056,211.01972200000003
B-4322,Cn1nc(C)c(C(=O)c2ccc(Cl)cc2Cl)c1O[S](=O)(=O)c3ccc(C)cc3,-6.8946,26,78.0,9.756,-0.005739537419,0.008300573036,-0.037793079548,0,17,423.1856708000001,2,4,11,12.0,0.0,337.62639548644347,483.13,247.484877
B-3400,COC/C(=N/OCC(=O)OC)c1cc(Oc2ccc(cc2Cl)C(F)(F)F)ccc1[N+]([O-])=O,-5.6783,31,90.0,9.944,-0.004707213837,0.017981523362,-0.034256565888,0,22,460.66137,2,7,23,21.0,0.0,350.99351689920013,606.734,244.469368