Name,SMILES,Solubility,AtomNum,DegFreedom,Dipole,Ghb,Gsasa,Gsolv,HNum,LP,MolWt,NNum,ONum,PiCenters,PiDeloc,Quadrupole,Volume,SASA,Polarizabilty
D-1473,C(OCc1ccccc1)c2ccccc2,-3.695,15,39.0,2.6710000000000003,-4.7320504e-05,-0.004712009341,-0.021257925583,0,0,184.1497075,0,1,10,14.0,0.0,175.36491116883397,360.723,129.942101
E-937,OC(c(cccc1)c1)Cc(cccc2)c2,-2.52,15,39.0,0.008,-0.000405666482,0.002025722373,-0.000505244246,0,1,184.1497075,0,1,9,12.0,0.0,180.14903027393,321.422,129.360727
A-122,C(COc1ccccc1)Oc2ccccc2,-3.988526528,16,42.0,0.001,-0.000187304242,-0.0004032222709999,-0.001621825465,0,4,200.1491124,0,2,8,11.0,0.0,183.2886431018504,370.165,133.538268
B-1223,OC(C(O)c1ccccc1)c2ccccc2,-1.933,16,42.0,8.037,-0.002513541871,0.0053010299399999,-0.016248923223,0,4,200.1491124,0,2,10,13.0,0.0,181.4755123884701,323.853,133.719076
B-284,CC(C)(C)C(=O)C1C(=O)c2ccccc2C1=O,-4.107,17,45.0,6.372999999999999,-0.003268371128,0.010633325969,-0.010870156512,0,7,216.1485174,0,3,12,12.0,0.0,199.2313749949937,354.625,133.402247
C-611,COC1=CC=C2C=C(C=CC2=C1)C(C)C(O)=O,-3.29,17,45.0,15.041,-0.001031826989,0.00343219517,-0.0259611071139999,0,4,216.1485174,0,3,15,10.0,0.0,202.16997269574244,391.208,143.33961599999998
I-56,O=C(O)[C@@H](C)c1ccc2cc(ccc2c1)OC,-4.5,17,45.0,15.172,-0.001128532797,0.0040000866609999,-0.026007807228,0,4,216.1485174,0,3,15,14.0,0.0,201.7320120874652,391.089,143.332504
B-1303,Cc1ccc(cc1)[S](=O)(=O)Oc2ccccc2C,-3.9417,18,48.0,5.332000000000001,-0.00890569368,0.007379426248,-0.0289653177999999,0,9,248.2133048,0,3,10,11.0,0.0,218.6330556484488,366.425,157.688609
A-1678,C=CCOC(=O)c1ccccc1C(=O)OCC=C,-3.221135687,18,48.0,10.254,-0.00149382875,0.00225979506,-0.025890365477,0,8,232.14792230000003,0,4,11,12.0,0.0,213.06231261057536,417.531,147.13326
G-707,c1c(O)C2C(=O)C3cc(O)ccC3OC2cc1(OC),-2.943,19,51.0,20.056,-0.007405847708,0.01347177478,-0.0854267951239999,0,8,248.1473272,0,5,13,13.0,0.0,196.8757530835329,381.377,146.32048799999998
A-364,O=C(OCC1CO1)c2ccc(cc2)C(=O)OCC3CO3,-3.557960056,20,54.0,7.999,-0.005076650578,0.015269942852,-0.018400971109,0,10,264.1467321,0,6,18,18.0,0.0,208.2473414115834,451.155,153.801574
A-1030,O=[S](Cc1ccccc1)Cc2ccccc2,-2.8588087210000004,16,42.0,11.078,-0.001093311249,-0.000402983056,-0.031679782446,0,3,216.2144949,0,1,8,10.0,0.0,198.21318842743244,358.201,149.261837
B-3055,CCC1COC(Cn2cncn2)(O1)c3ccc(Cl)cc3Cl,-3.613,20,57.0,8.869,-8.4402466e-05,-0.002775901587,-0.013358450072,0,12,313.0750972,3,2,14,15.0,-0.001,251.9259898949317,449.029,185.058949
A-2118,CC1(C)CC\C(=C/c2ccc(Cl)cc2)C1=O,-5.671591194,15,42.0,4.963,-0.001707206354,0.002267228955,-0.0101575324369999,0,7,219.6026451,0,1,11,12.0,0.0,202.615109205658,383.171,141.802257
A-824,C(NCc1ccccc1)c2ccccc2,-2.687630237,15,39.0,1.378,-9.01202e-07,-0.005493506212,-0.0114075753599999,0,0,182.1570058,1,0,12,10.0,0.0,176.53263812709682,362.764,130.856763
A-429,N#C[C](=[C]1CC[CH2]CC1)c2ccccc2,-4.420023997,15,39.0,4.541,-4.755502e-06,-0.006553364825,-0.010247003262,0,1,182.1570058,1,0,9,11.0,0.0,176.78824861727006,324.44,130.831775
B-3030,Cc1ccc(cc1)N=Nc2cc(C)ccc2N,-3.9031,17,45.0,7.846,-8.620569e-06,-0.007843449108,-0.019842672469,0,3,210.1704122,3,0,15,16.0,0.0,204.84932442257943,379.874,144.82804199999998
F-1095,CC1=C(N)C=CC(N=NC2=C(C)C=CC=C2)=C1,-4.05,17,45.0,9.458,-6.720151e-06,-0.008335456545,-0.020832299184,0,3,210.1704122,3,0,12,15.0,0.0,199.96746769563825,393.324,145.761852
C-605,CC1=NC(=NC(=C1)C2CC2)NC3=CC=CC=C3,-4.05,17,45.0,1.433,-4.105584e-06,-0.006694367127,-0.0114685690189999,0,5,210.1704122,3,0,11,12.0,0.0,193.1660817555509,346.77,144.187745
F-1096,CN(C)C1=CC=C(N=NC2=CC=CC=C2)C=C1,-5.25,17,45.0,3.517,-1.325799e-06,-0.006659099359,-0.010884551893,0,4,210.1704122,3,0,9,12.0,0.0,200.7461132727492,394.41,145.20657
F-849,COC1=CC2=C3C(=C1)C=CC=C3CN(C(N)=NO)C2,-1.21,19,51.0,15.96,-9.7132752e-05,-0.006388887045,-0.04654458623,0,5,242.1692221,3,2,18,12.0,0.0,213.21301744033696,386.184,156.02361499999998
F-1106,CN(C)C1=CC=C(N=NC2=CC=C(S(=O)(=O)O)C=C2)C=C1,-3.86,21,57.0,19.045,-0.0146467460489999,0.008714034318,-0.065944717329,0,12,290.2334144,3,3,8,11.0,0.0,246.3270204231533,469.155,180.337881
C-731,CCN(CC)C(=O)\C(=C/C1=CC(=C(O)C(=C1)[N+]([O-])=O)O)C#N,-4.26,22,60.0,7.486000000000001,-0.006587261675,0.018077280216,-0.034066271963,0,12,290.1674368,3,5,25,15.0,0.0,243.10350293692431,473.721,171.211508
A-1798,O=C1N(SC2CCCCC2)C(=O)c3ccccc13,-4.323794172,18,48.0,3.901,-0.002192045118,0.005482359564,-0.00556519623,0,6,246.2206031,1,2,10,11.0,0.0,203.3264531944845,382.144,160.096155
B-2870,CCOC(=O)C(NC=O)=CC=Cc1ccccc1,-3.3483,18,48.0,10.083,-0.002770705961,0.00605945771,-0.019670537623,0,5,230.1552206,1,3,19,14.0,0.001,206.1141080179699,434.36300000000006,147.3006
C-2152,OCCN1C=CC(=O)C(=C1C(O)C2=CC=CC=C2)O,-2.82,19,51.0,3.624,-0.003807473104,0.010855992944,-0.021038372637,0,6,246.1546255,1,4,14,14.0,0.0,205.3518796700945,367.116,150.725202
C-1308,OC(=O)C1CCCN1C(=O)COC(=O)C2=CC=CC=C2,-1.59,20,54.0,6.869,-0.004413420211,0.014530074732,-0.013373638698,0,9,262.1540304,1,5,19,16.0,0.0,216.3080442579676,427.601,152.13108200000002
B-3442,OC(=O)[C@@H]1CCCN1C(=O)COC(=O)c2ccccc2,-1.5917,20,54.0,6.815,-0.004403259674,0.0145168627199999,-0.0132903501759999,0,9,262.1540304,1,5,19,15.0,0.0,216.2945113878767,427.529,152.12780700000002
C-2199,OC1C(O)C(O)C2C(NC(=O)C3=C(O)C4=C(OCO4)C=C23)C1O,-3.8,23,63.0,6.728,-0.005089995565,0.0283637576049999,-0.019799730237,0,15,310.1522452,1,8,18,13.0,0.0,221.8922468648597,396.446,168.265504
A-5266,Cc1ccccc1O[P](S)(=S)Oc2ccccc2C,-1.060529965,18,51.0,6.107,-0.001095242323,0.003433779286,-0.006017475036,0,11,295.2524493,0,2,10,10.0,-0.001,255.20066553761305,418.69,195.804319
B-4246,CCO[P](=O)(Sc1ccccc1)Sc2ccccc2,-3.3305,18,51.0,5.723,-0.002272666582,0.005881249398,-0.001170325521,0,9,295.2524493,0,2,10,12.0,0.0,254.07790657890297,389.349,196.997477
B-3119,Cc1cccc(C)c1N(Cn2cccn2)C(=O)CCl,-2.8102,19,51.0,7.182,-0.0021961964,-0.000458944,-0.028947134142,0,6,261.6227547,3,1,17,13.0,0.0,235.7558387817168,396.94,163.20703
B-2901,CC(C)(C)C(=O)C(Oc1ccc(Cl)cc1)n2cncn2,-3.6137,19,54.0,3.665,-0.00154857071,-0.0003689089149999,-0.016356518137,0,10,277.62215960000003,3,2,7,12.0,0.0,240.9029926769456,411.456,161.074035
B-3268,COc1nc(C)nc(NC(=O)N[S](=O)(=O)c2ccccc2OCCCl)n1,-4.0989,25,72.0,6.99,-0.006194290361,0.005038224018,-0.040335671066,0,16,385.6985682,4,5,18,19.0,-0.001,296.9319485594129,472.602,220.591883
F-754,CN(C)CC(O)C1=C2C=CC=CC2=C(Cl)C=C1,-1.22,16,45.0,7.107,-0.0015636042749999,0.000802624223,-0.013768175067,0,7,233.6093483,1,1,7,11.0,0.0,208.3526663181192,353.718,147.917135
B-3036,Cc1cccc(C)c1N(C2CCOC2=O)C(=O)CCl,-3.2855,19,51.0,5.152,-0.001575863834,0.005635492702,-0.013667120376,0,11,265.6081582,1,3,10,9.0,0.0,225.5398437056576,377.835,157.602297
B-51,CCO[P](=S)(OCC)Oc1ccc2C(=C(Cl)C(=O)Oc2c1)C,-5.3835,21,60.0,5.84,-0.004777488037,0.008031767983,-0.025580958094,0,16,346.6388142,0,5,12,9.0,0.0,269.57097756394523,478.675,209.733596
G-525,CCOP(=S)(OCC)Oc2ccc1oc(=O)c(Cl)c(C)c1c2,-5.3820000000000014,21,60.0,8.112,-0.010520277893,0.0125517651839999,-0.03935662227,0,12,346.6388142,0,5,13,13.0,-0.001,274.903974389445,454.842,203.347269
B-2674,CCCN(CC1CC1)c2c(cc(cc2[N+]([O-])=O)C(F)(F)F)[N+]([O-])=O,-6.5407,24,66.0,10.755999999999998,-0.00517539274,0.018691674359,-0.043971555722,0,18,331.1632414,3,4,15,13.0,0.001,253.8593965279436,469.475,176.76218899999998
A-1991,CCC1(C)Nc2cccc3cccc(N1)c23,-3.247760565,16,42.0,7.385,-4.276083e-06,-0.0062338667409999,-0.011655376681,0,3,196.163709,2,0,5,12.0,0.0,187.8442926101925,347.12800000000004,138.598442
B-701,Cc1cc(ccc1N)c2ccc(N)c(C)c2,-2.213,16,42.0,0.032,-1.0295316e-05,-0.0100070177119999,-0.025815103545,0,4,196.163709,2,0,12,12.0,0.0,168.5260243143738,428.382,140.831019
A-726,Nc1ccc(CCc2ccc(N)cc2)cc1,-3.645700574,16,42.0,0.175,-1.1525388e-05,-0.009114813463,-0.0217027760999999,0,2,196.163709,2,0,12,11.0,0.0,187.135769641794,379.981,137.705655
B-4303,COc1cc(ccc1N)c2ccc(N)c(OC)c2,-3.6098,18,48.0,16.793,-0.000187174451,-0.009151049105,-0.04308689055,0,4,228.16251890000004,2,2,18,13.0,0.0,186.48603725345816,465.019,151.467973
C-610,CCOC(=O)C1=CN=C[N]1C(C)C2=CC=CC=C2,-4.73,18,48.0,14.629,-0.001217646194,-0.002717045233,-0.039791891621,0,5,228.16251890000004,2,2,17,13.0,0.0,213.01724972609867,380.82,148.972713
C-833,CCC1=CC=C(N[S](=O)(=O)C2=CC=C(N)C=C2)C=C1,-4.52,19,51.0,5.704,-0.004294991407,-0.000772645817,-0.043437080174,0,8,260.2273063,2,2,14,15.0,0.0,223.2048630447246,413.494,163.83068899999998
D-1403,Nc1ccc(cc1)[S](=O)(=O)c2ccc(NCCO)cc2,-2.597,20,54.0,7.237999999999999,-0.007471807156,0.007760691532,-0.0290439863849999,0,6,276.22671119999995,2,3,17,15.0,0.0,210.8077882024027,444.972,173.964156
A-2395,CC(=O)CC(=O)Nc1ccc(NC(=O)CC(C)=O)cc1,-3.12750109,20,54.0,4.895,-0.0029694032329999,0.013350837195,-0.003762381964,0,7,260.1613287,2,4,18,17.0,0.0,234.05559233769245,437.639,157.340123
C-1303,NC(=O)C1CCCN1C(=O)COC(=O)C2=CC=CC=C2,-2.27,20,54.0,3.014,-0.004000811553,0.008280475306,-0.017325603012,0,6,260.1613287,2,4,16,10.0,0.0,226.78757270816843,394.55300000000005,155.87532
A-1215,COc1cc(c(OC)cc1N)[S](=O)(=O)Nc2ccccc2,-4.057692864,21,57.0,7.624,-0.004083463713,0.0009843287459999,-0.051848785202,0,8,292.2261161,2,4,17,16.0,0.0,249.45972626418785,415.448,176.908209
F-852,CN(C)CC1=C(O)C=CC(C(=O)C2=CSC(S(N)(=O)=O)=C2)=C1,-1.54,20,60.0,16.39,-0.013108140038,0.016758093533,-0.057569939495,0,12,324.2909035,1,4,19,16.0,0.001,267.79731448168326,488.009,196.99243
B-1113,CN(C)c1ccc(cc1)N=Nc2ccc(N)cc2,-4.593999999999999,18,48.0,3.333,-6.486222e-06,-0.009386277922,-0.023220673154,0,3,224.1771154,4,0,18,14.0,0.0,206.35662180878072,447.102,151.552189
F-570,NC1=CC=C(S(=O)(=O)NC2=NC3=C(C=N2)CCCC3)C=C1,-3.65,21,57.0,12.807,-0.006899810669,-0.000109105709,-0.033091189016,0,7,288.2407127,4,2,22,18.0,0.0,226.14447733908776,460.979,184.731103
C-2408,CCN1C=CC(=NC1=O)N[S](=O)(=O)C2=CC=C(NC(C)=O)C=C2,-2.71,23,63.0,9.345,-0.0054010617729999,0.008629616497,-0.031638222919,0,11,320.2395225,4,4,20,14.0,0.0,264.45982984577444,501.582,191.781299
C-2212,[O-][N+](=O)C1=C(C=C(C(=O)N2CCCCC2)C(=C1)[N+]([O-])=O)N3CC3,-3.17,23,63.0,4.731,-0.006568004868,0.019885516162,-0.018426712639,0,12,304.17414,4,5,22,16.0,0.0,206.55362334921355,478.597,174.948622
B-1813,CC(C)COc1ccc2ccccc2c1,-5.2117,15,39.0,11.555,-8.046656e-05,-0.002910761017,-0.014144042646,0,2,184.1497075,0,1,10,11.0,0.0,189.02785907299855,360.892,131.962764
F-1144,CC1(C)OCC(COC(=O)C2=C(C(=O)O)C=CC=C2)O1,-1.23,20,54.0,12.075,-0.002929151792,0.011103271891,-0.020128841704,0,10,264.1467321,0,6,15,13.0,-0.001,230.19564274215776,418.151,154.72934899999998
B-3537,COC(=O)C1(CCCCC1)[S](=O)(=O)c2ccc(Br)cc2,-4.4786,19,54.0,5.301,-0.004007803583,0.0095469203839999,-0.015291802261,0,8,344.1162375,0,4,13,15.0,0.0,250.1728473589719,410.57,185.674282
B-3254,CCCCC(O)(Cn1cncn1)c2ccc(Cl)cc2Cl,-4.2668,19,54.0,8.49,-9.9126639e-05,-0.002434299883,-0.013537876444,0,10,297.0756923,3,1,14,12.0,0.0,247.00420691628955,449.598,179.720583
B-1801,N[S](=O)(=O)c1cc2c(CN(C3CCCCC3)C2=O)cc1Cl,-4.3128,21,57.0,9.453,-0.0084664123529999,0.009039447885,-0.022164631696,0,12,311.6796488,2,3,8,12.0,0.0,240.40300708727025,421.679,186.09001
H-545,CCOP(=S)(OCC)SC(CCl)N1C(=O)C2=CC=CC=C2C1=O,-5.85,22,63.0,17.825,-0.001241327158,0.007389879068,-0.030332051148,0,17,376.7108999,0,4,16,12.0,0.0,290.5441078683883,475.451,231.124439
B-3523,CC(C)(C)OC(=O)C1(CC1)[S](=O)(=O)c2ccc(Cl)cc2,-4.1206,19,54.0,10.613,-0.008222005273,0.011250842853,-0.030921448497,0,15,299.66564730000005,0,4,12,13.0,0.001,248.53706037663403,466.472,175.808412
B-691,CCO[P](=S)(OCC)OC1=NN(C(=O)C=C1)c2ccccc2,-3.5319,22,60.0,18.407,-0.001604676422,0.004494720449,-0.040813633889,0,13,323.19987810000003,2,4,13,13.0,0.001,262.89753652206224,442.52,203.709648
C-2089,CCN1CCN2C(=O)C3=C(C=CC=C3)N=C2C1C,-2.5,18,48.0,2.8480000000000003,-0.002272622016,-0.000719797715,-0.018980835103,0,4,226.1698171,3,1,14,14.0,0.0,199.7054860038237,352.805,149.05770900000002
C-684,CCCN1CN2C(=O)C3=C(C=CC=C3)N=C2C1C,-2.67,18,48.0,4.384,-0.0015833641049999,-0.001206657519,-0.015629778776,0,6,226.1698171,3,1,9,10.0,0.0,199.15820495138277,383.298,152.329568
C-2108,CC1CN(C)C(C)C2=NC3=C(C=CC=C3)C(=O)N12,-2.09,18,48.0,3.725,-0.000126321927,-0.003785586695,-0.007556745574,0,4,226.1698171,3,1,11,12.0,0.0,206.44223376843223,345.22900000000004,149.93281299999998
F-671,NCCNC1=CC=C(S(=O)(=O)C2=CC=C(N)C=C2)C=C1,-2.35,20,54.0,11.101,-0.007657487323,0.000320323089,-0.042185170003,0,9,274.2340095,3,2,10,10.0,0.0,218.3126645982299,446.513,171.809902
B-3398,CC(C)C1(C)N=C(NC1=O)c2ncc(C)cc2C(O)=O,-2.0911,20,54.0,11.396,-0.0055246033,0.007224239851,-0.056560052067,0,8,258.168627,3,3,16,16.0,0.0,242.4808503000459,435.484,160.746241
F-678,CCOC(=O)CC1=C(C)N=C(NS(=O)(=O)C2=CC=C(N)C=C2)S1,-2.88,23,63.0,17.781,-0.007898226676,0.006843923499,-0.056408408338,0,15,338.2976067,3,4,17,13.0,0.0,275.63886428338344,485.935,202.464692
B-2933,CCN1C=C(C(O)=O)C(=O)c2cnc(nc12)N3CCNCC3,-2.974,22,60.0,21.36,-0.006244569765,0.008367873061,-0.0626549281759999,0,5,286.1820334,5,3,17,21.0,0.0,232.69275449359716,433.716,174.603562
B-3480,CC[S](=O)(=O)c1cccnc1[S](=O)(=O)NC(=O)Nc2nc(OC)cc(OC)n2,-4.6349,27,78.0,14.986,-0.010812092247,0.010514400103,-0.114653278077,0,20,414.3092279,5,6,19,17.0,0.0,331.21556541598164,475.458,234.852728
F-314,CCN(CC)C1=CC2=C(C=C1)C(C)=CC(=O)O2,-4.0,17,45.0,4.908,-0.002205246196,0.0032605533519999,-0.0211251847189999,0,6,214.1558156,1,2,7,13.0,0.001,196.09386058465267,367.589,140.81260600000002
C-1926,CCC1(CCC(=O)N(CO)C1=O)C2=CC=CC=C2,-1.66,18,48.0,11.4,-0.002416356026,0.00884543457,-0.015464891614,0,4,230.1552206,1,3,17,15.0,-0.001,201.20480986292728,392.466,147.501117
B-3415,O=C(COC(=O)c1ccccc1)N2CCCCC2,-2.5011,18,48.0,6.559,-0.002620903348,0.003133325028,-0.017428005458,0,5,230.1552206,1,3,12,15.0,0.0,209.1391471691176,378.372,145.16558700000002
B-3441,OC1CCN(CC1)C(=O)COC(=O)c2ccccc2,-1.3486,19,51.0,8.937999999999999,-0.004127994085,0.010257095857,-0.017182783791,0,7,246.1546255,1,4,15,12.0,0.001,208.59391519113296,403.311,146.111889
C-1287,CCOC(=O)CN(C)C(=O)COC(=O)C1=CC=CC=C1,-1.67,20,54.0,13.800999999999998,-0.004025894542,0.008478056779,-0.032450477216,0,10,262.1540304,1,5,16,15.0,0.0,227.46243938935876,439.1230000000001,156.550705
B-2366,CC(C)OC(=O)c1cc(cc(c1)[N+]([O-])=O)C(=O)OC(C)C,-5.0389,21,57.0,0.7829999999999999,-0.005804208628,0.016768609999,-0.019896703951,0,12,278.1534353,1,6,14,15.0,0.0,236.1300176693348,459.275,160.310519
B-3532,CC(C)OC(=O)C1(CCC1)[S](=O)(=O)c2ccc(cc2)[N+]([O-])=O,-3.7599,22,60.0,5.916,-0.011177796584,0.021256148618,-0.037623481365,0,12,310.2182227,1,6,17,19.0,0.0,263.8319201024477,475.359,183.60906
B-1758,CCCCOCCOC(=O)COc1ccc(Cl)cc1Cl,-4.4276,19,54.0,7.02,-0.002644974962,0.0074568623179999,-0.014417340153,0,12,303.0537974,0,4,15,15.0,0.0,242.6300697788237,504.831,175.942454
B-3239,CCCS[P](=O)(OCC)Oc1cnn(c1)c2ccc(Cl)cc2,-4.0388,21,60.0,7.376,-0.004297624624,0.004271513573,-0.017701163562,0,11,342.6534108,2,3,17,18.0,0.0,273.3202896751171,486.534,211.200026
B-2988,CC(C)(C)C(O)C(Oc1ccc(Cl)cc1)n2cncn2,-3.3918,19,54.0,8.032,-0.001485476476,-0.000273990376,-0.022734707034,0,10,277.62215960000003,3,2,10,11.0,0.0,240.78789148928053,408.637,165.887996
B-3271,CC(C)(C)[C@H](O)[C@H](Oc1ccc(Cl)cc1)n2cncn2,-3.9524,19,54.0,8.014,-0.001493452837,-0.000237547327,-0.022684708494,0,10,277.62215960000003,3,2,10,11.0,0.0,240.784673265906,408.8130000000001,165.889774
B-3314,CC(C)(C)[C@@H](O)[C@H](Oc1ccc(Cl)cc1)n2cncn2,-3.6786,19,54.0,8.091000000000001,-0.0014952939619999,-0.0002405560529999,-0.02279350123,0,10,277.62215960000003,3,2,10,11.0,0.0,240.7719326530147,408.871,165.876725
F-347,CC1=C(C(C)C)C(=O)N(C2=CC=CC=C2)N1C,-1.91,17,45.0,6.07,-0.001822227688,-2.6484263e-05,-0.017004924762,0,5,212.1631139,2,1,12,14.0,0.0,202.64784711866463,352.168,141.142392
F-457,CCC1(CC)C(=O)N(C)N(C2=CC=CC=C2)C1=O,-2.69,18,48.0,7.544,-0.002299886176,0.004098820149,-0.0174266726,0,5,228.16251890000004,2,2,15,9.0,0.0,206.0590326655128,378.994,148.066237
G-1023,CCC1(C(=O)NC(=O)NC1=O)C2=CCC3CCC2C3,-2.696,19,51.0,5.043,-0.0008071786329999,0.005497066133,-0.0008000486,0,6,244.1619238,2,3,17,10.0,0.0,207.1629429250436,375.592,147.172577
B-2012,CCC1(C(=O)NC(=O)NC1=O)C2=CC3CCC(C3)C2,-2.7696,19,51.0,17.201,-0.005197708517,0.010045959596,-0.04597692284,0,7,244.1619238,2,3,16,13.0,0.0,200.9760558564636,412.482,147.699952
B-3244,COCC(=O)N(N1CCOC1=O)c2c(C)cccc2C,-1.913,20,54.0,5.629,-0.001417149075,0.003021546022,-0.0130453067859999,0,7,260.1613287,2,4,14,14.0,-0.001,232.1182411092052,382.208,157.327976
F-910,CC(C)NCC1=CC=CC(S(=O)(=O)C2=CSC(S(N)(=O)=O)=C2)=C1,-1.56,21,63.0,8.177999999999999,-0.016293529797,0.015128241076,-0.061278946805,0,15,356.3556909,1,4,10,12.0,-0.001,283.1816436155882,476.093,218.732338
B-272,CC(=O)c1c(C)c(c(c(c1C)[N+]([O-])=O)C(C)(C)C)[N+]([O-])=O,-5.1901,21,57.0,10.803,-0.004017154874,0.015172306942,-0.020905190168,0,11,276.1607336,2,5,18,14.0,0.0,255.63336892278167,398.775,158.372853
F-555,CCNC(=O)NC1=C(C)N(C)N(C2=CC=CC=C2)C1=O,-1.83,20,54.0,6.769,-0.002010020456,0.003942069197,-0.020458109003,0,5,256.1759253,4,2,16,15.0,0.0,232.0411487856091,417.633,163.38328
B-4507,COc1cc(Cc2cnc(N)nc2N)cc(OC)c1OC,-2.8608,21,57.0,13.890999999999998,-5.9891812e-05,-0.010036004075,-0.038311436907,0,6,272.1753302,4,3,23,18.0,-0.001,247.47599639393135,457.641,170.381874
C-783,CCCCNC(=O)[N]1C(=NC2=C1C=CC=C2)NC(=O)OC,-4.86,21,57.0,7.029,-0.001571519753,0.001673732299,-0.013156900167,0,7,272.1753302,4,3,22,17.0,0.0,235.29132952237944,455.773,169.017829
C-2354,CC(C)CN1C=CC(=NC1=O)N[S](=O)(=O)C2=CC=C(N)C=C2,-3.11,22,60.0,3.852,-0.007621361191,0.0067704455559999,-0.025410353679,0,10,304.2401176,4,3,22,17.0,-0.001,258.9827007659468,507.764,190.051244
C-2348,CCCCN1C=CC(=NC1=O)N[S](=O)(=O)C2=CC=C(N)C=C2,-3.09,22,60.0,3.892,-0.006635756333,0.004285277018,-0.028181148484,0,9,304.2401176,4,3,23,19.0,-0.001,240.6007470710396,493.458,190.062609
C-2359,CCC(C)N1C=CC(=NC1=O)N[S](=O)(=O)C2=CC=C(N)C=C2,-2.76,22,60.0,2.63,-0.00770359329,0.006890209359,-0.025415286452,0,10,304.2401176,4,3,22,18.0,0.0,258.85102330030145,507.638,190.053333
B-3339,CCOC(=O)c1cnn(C)c1[S](=O)(=O)NC(=O)Nc2nc(OC)cc(OC)n2,-4.4561,28,78.0,15.577,-0.005306510165,-0.000170887995,-0.059651801476,0,19,396.2511437,6,7,24,16.0,-0.001,313.8199103076914,509.278,224.410767
A-1528,CCCCC/C(C=O)=C/c1ccccc1,-3.0466584180000003,15,39.0,5.992999999999999,-8.6906528e-05,0.001666136535,-0.005474840078,0,2,184.1497075,0,1,8,12.0,0.0,183.18576564657195,347.095,131.16497900000002
A-5408,OC(=O)\C=C/C(=O)OCCOCCOCCOC(=O)\C=C/C(O)=O,0.159532562,24,66.0,5.74,-0.015913979159,0.035646352551,-0.161765369791,0,12,328.14435180000004,0,10,34,19.0,0.001,256.4348816812849,568.84,174.743053
B-472,CCOCCOC(=O)/C=C/c1ccc(OC)cc1,-2.6995,18,48.0,26.677,-0.0024896511,0.003841531015,-0.046910633501,0,7,232.14792230000003,0,4,17,13.0,0.0,207.8535225836609,445.033,147.666536
F-459,CCCOC(=O)C1=C(C(=O)OCCC)C=CC=C1,-3.82,18,48.0,8.619,-0.002649960255,0.002948994978,-0.02482247889,0,8,232.14792230000003,0,4,11,14.0,0.001,206.7773126718417,419.218,146.990257
B-3914,CC(C)OC(=O)c1ccccc1C(=O)OC(C)C,-2.8773,18,48.0,9.017,-0.001729523494,0.003171466965,-0.014866961447,0,8,232.14792230000003,0,4,13,15.0,0.0,211.3767599720428,396.084,143.979747
B-3520,CC(C)OC(=O)C1(CC1)[S](=O)(=O)c2ccc(C)cc2,-3.2307,19,51.0,13.401,-0.007832477939,0.008326795105,-0.042752955816,0,10,264.2127097,0,4,10,13.0,0.001,231.770153752608,400.513,164.648969
C-606,COC(=O)C1(CCCCC1)[S](=O)(=O)C2=CC=CC=C2,-3.85,19,51.0,6.7170000000000005,-0.00579396861,0.006184262211,-0.036734696848,0,8,264.2127097,0,4,16,17.0,0.0,225.22302063829548,386.916,163.894383
B-3540,CCOC(=O)C1(CCC1)[S](=O)(=O)c2ccc(C)cc2,-2.9594,19,51.0,13.042,-0.008132426875,0.008344797836,-0.056147886698,0,9,264.2127097,0,4,14,11.0,0.001,225.22482294298072,392.663,163.989482
B-682,COCCOC(=O)c1ccccc1C(=O)OCCOC,-1.5213,20,54.0,13.983,-0.004853232436,0.00480275919,-0.069500038126,0,8,264.1467321,0,6,17,17.0,0.0,223.3937471106541,447.331,157.41314599999998