Name,SMILES,Solubility,AtomNum,DegFreedom,Dipole,Ghb,Gsasa,Gsolv,HNum,LP,MolWt,NNum,ONum,PiCenters,PiDeloc,Quadrupole,Volume,SASA,Polarizabilty
F-1058,CCCCCOC(=O)C(C)C1=CC2=CC=C(OC)C=C2C=C1,-6.97,22,60.0,9.013,-0.001304047873,0.00100414516,-0.013913490631,0,4,276.20219689999993,0,3,15,17.0,0.0,259.34015536065294,521.2869999999999,188.017022
B-2624,CC(C)=C[C@H]1[C@H](C(=O)OC2CC(=O)C(=C2C)CC#C)C1(C)C,-4.5746,22,60.0,2.736,-0.00188669895,0.001240759068,-0.0269483799679999,0,7,276.20219689999993,0,3,7,19.0,0.001,268.42744070508974,497.766,186.22035
A-1832,CC(C)(c1ccc(OCCO)cc1)c2ccc(OCCO)cc2,-3.451790553,23,63.0,4.516,-0.002279383712,0.0108639645699999,-0.006037940317,0,4,292.2016018,0,4,17,20.0,0.0,270.2816714018129,481.018,190.115061
B-2240,C\C=C/C(=O)O[C@@H]1C[C@H]2O[C@@H]3C=C(C)C(=O)C[C@]3(C)[C@]1(C)[C@@]24CO4,-2.9196,24,66.0,11.556,-0.003171784019,0.010253343318,-0.029738304822,0,10,308.2010067,0,5,16,17.0,0.0,271.61535706551825,515.212,189.470307
B-3347,CC(C)(C)N1N=CC(=C(Cl)C1=O)SCc2ccc(cc2)C(C)(C)C,-7.483,22,66.0,17.160999999999998,-0.00227277103,-0.000963869789,-0.054353876231,0,12,339.7345184,2,1,15,15.0,0.0,309.52456098431617,510.794,217.555333
A-68,CCN(CC[N+](C)(C)C)c1ccc(cc1)N=Nc2ccc(cc2Cl)[N+]([O-])=O,-3.0386996230000003,26,75.0,8.101,-0.003805900225,0.00419622692,-0.124454284069,0,10,365.6892456000001,4,2,20,16.0,0.0,319.8341970950378,591.128,226.635432
C-997,COC1=CC2=C(C=C1OC)C(=NC(=N2)N3CCN(CC3)C(=O)C4CCCO4)N,-1.8,28,78.0,23.699,-0.003615739306,0.0006404881089999,-0.065911605826,0,10,362.2351178,5,4,23,17.0,0.0,304.17622103498167,522.678,217.332104
C-308,CC(C)=CC1C(C(=O)OCN2C(=O)C3=C(CCCC3)C2=O)C1(C)C,-5.26,24,66.0,6.252000000000001,-0.003116510581,0.005227127624,-0.021786634815,0,11,306.208305,1,4,12,17.0,0.0,277.2960090205524,497.108,196.40922
D-1980,CC(C)=C[C@@H]1[C@@H](C(=O)OCN2C(=O)C3=C(CCCC3)C2=O)C1(C)C,-4.8580000000000005,24,66.0,5.066,-0.003032234497,0.005248938825,-0.0213646265499999,0,11,306.208305,1,4,12,19.0,0.0,277.3241851412015,495.959,196.418699
F-753,COCOC1=C2OC3C(O)CCC4C5CC(=C2C43CCN5C)C=C1,-1.96,24,66.0,7.737999999999999,-0.002341344541,0.000902646165,-0.023507862438,0,7,306.208305,1,4,24,19.0,-0.001,260.24026237849733,442.673,197.233579
A-2096,CC(C)CCC(C)Nc1ccc(Nc2ccccc2)cc1,-5.6248375610000005,21,57.0,3.321,-4.712044e-06,-0.008165538953,-0.0266050012669999,0,2,256.2173885,2,0,11,14.0,0.0,266.1410902847162,472.565,181.985108
B-2113,C1CCC(CC1)N(Sc2sc3ccccc3n2)C4CCCCC4,-6.7886,22,63.0,2.72,-4.273536e-06,-0.00242578094,-0.006923348696,0,6,320.3469633,2,0,12,13.0,0.0,282.70731210414834,453.305,221.468912
C-302,CC12CCC3C(CCC4=CC(=O)CCC34C)C1CCC2=O,-3.7,21,57.0,4.302,-0.005450602597,0.006969220872,-0.034918452799,0,4,260.2027919,0,2,13,15.0,0.0,249.1350134532053,404.98,175.418495
B-4574,C[C@]12CC[C@H]3[C@@H](CCC4=CC(=O)CC[C@]34C)[C@@H]1CCC2=O,-3.6949,21,57.0,4.338,-0.005442733414,0.006967762921,-0.034819826639,0,4,260.2027919,0,2,13,15.0,0.0,249.1425299406337,404.98,175.419709
A-596,C[C@]12CC[C@H]3[C@@H](CCC4=CC(=O)C=C[C@]34C)[C@@H]1CC[C@@H]2O,-3.700359651,21,57.0,4.283,-0.005458660364,0.006969941724,-0.035013984596,0,4,260.2027919,0,2,13,15.0,0.0,249.12595180981083,404.987,175.417668
A-5067,COC1=CCC2=C(CCC3C2CCC4(C)C3CCC4=O)C1,-4.979874504,21,57.0,14.515,-0.001948735907,0.000263206504,-0.029044583882,0,4,260.2027919,0,2,12,15.0,0.001,232.3339857403554,415.536,177.369295
A-3964,CCC12CC[C@H]3[C@@H](CCC4=CC(=O)CC[C@H]34)[C@@H]1CCC2=O,-3.732719889,21,57.0,5.736000000000001,-0.0033324663419999,0.006560177992,-0.0231136506389999,0,4,260.2027919,0,2,13,14.0,0.0,227.8834096336313,412.55,175.348964
F-367,CC12CCC3(O)C(CCC4=CC(=O)CCC43C)C1CCC2=O,-2.68,22,60.0,5.521,-0.0065185769389999,0.011920585475,-0.027625801159,0,6,276.20219689999993,0,3,15,16.0,0.0,206.15213714494843,479.536,184.517818
A-1519,C[C@]12CCC(=O)C=C1CC[C@@H]3[C@@H]2CC[C@@]4(C)[C@H]3C(O)CC4=O,-2.213096942,22,60.0,9.591,-0.004943090832,0.013122261461,-0.017695341778,0,5,276.20219689999993,0,3,14,15.0,0.0,258.4847564415609,431.174,181.536148
B-1236,CC(C)=CC1C(C(=O)OC2CC(=O)C(=C2C)CC=C)C1(C)C,-4.8179,22,60.0,4.152,-0.002996956526,0.004151201687,-0.028020801993,0,9,276.20219689999993,0,3,9,16.0,0.0,277.17442124757457,488.749,187.917319
B-4379,CC(C)(C)c1ccc(OC2CCCCC2O[S](=O)OCC#C)cc1,-5.8457,23,66.0,21.301,-0.006701996411,0.0023707203339999,-0.0989648817139999,0,10,324.2663892,0,3,11,15.0,0.0,295.0672239244595,516.883,208.815465
B-2570,CC(CO)C(=O)O[C@H]1CC(=C/CCC(=C/[C@H]2OC(=O)C(=C)[C@H]12)/CO)/C,-2.2436,25,69.0,15.33,-0.0069579486419999,0.0212244401629999,-0.0368531323989999,0,9,324.20041160000005,0,6,19,22.0,-0.001,290.3600129440989,463.689,196.54119
F-727,CCN(CC)CCC(C)(O)C1=C2C=CC=CC2=C(OC)C=C1,-1.68,22,60.0,22.472,-0.000125674757,-0.004060295095,-0.049244560143,0,5,274.2094951,1,2,16,16.0,0.0,258.7776776243513,481.609,188.646978
C-1653,CC12CCC3C(CCC4CC(=O)CCC34C)C1CC=C2,-6.07,20,54.0,8.587,-0.002634998675,0.000743645101,-0.018743998331,0,3,244.203387,0,1,9,13.0,0.0,240.55065266766917,395.447,173.417481
H-11,CC12CCCC1C1CCC3CC(=O)C(=O)CC3(C)C1CC2,-3.76,21,57.0,10.425,-0.002215450632,0.006763997959,-0.011271070952,0,4,260.2027919,0,2,13,14.0,0.0,245.58611274197,406.259,173.258794
G-1078,CC12CCC3C(CCC4=CC(=O)CCC34C)C2CCC1O,-4.02,21,57.0,4.956,-0.005557923843,0.007176247863,-0.030976258376,0,4,260.2027919,0,2,9,16.0,0.0,253.40454749494447,415.381,178.587639
B-4573,C[C@]12CC[C@H]3[C@@H](CCC4=CC(=O)CC[C@]34C)[C@@H]1CC[C@@H]2O,-4.0908,21,57.0,4.313,-0.005447730138,0.006967721081,-0.034887385011,0,4,260.2027919,0,2,13,14.0,0.0,249.12415482133844,404.964,175.420066
H-574,CC12CCC3C(CC=C4CC(O)CCC43C)C1CCC2=O,-4.01,21,57.0,1.802,-0.003775037034,0.0063974223019999,-0.021196248365,0,5,260.2027919,0,2,10,11.0,0.0,243.657001950698,409.431,176.202002
D-1336,C[C@]12CC[C@H]3[C@@H](CC=C4C[C@@H](O)CC[C@]34C)[C@@H]1CCC2=O,-4.122,21,57.0,2.673,-0.003780927145,0.006533109342,-0.021398157936,0,6,260.2027919,0,2,9,14.0,0.001,237.77032817078253,407.605,175.125222
A-5061,COC1=CCC2=C(CC[C@@H]3[C@@H]2CC[C@]4(C)[C@@H](O)CC[C@@H]34)C1,-4.761071931,21,57.0,15.617,-0.003129314471,0.000839670852,-0.036370766686,0,3,260.2027919,0,2,15,12.0,-0.001,237.58258038332423,410.149,178.178094
A-5074,C1CC(CC=C1)C2OCC3(CO2)COC(OC3)C4CCC=CC4,-5.239735444,23,63.0,3.576,-0.000195490646,2.2818546e-05,-0.011796653882,0,5,292.2016018,0,4,16,17.0,0.0,256.7802288049583,463.883,188.028419
C-444,OC(CCN1CCCC1)(C2CCCCC2)C3=CC=CC=C3,-4.7,21,57.0,3.14,-0.000451664982,-0.0037306018569999,-0.009603938792,0,4,258.2100902,1,1,13,13.0,0.001,241.7493459198925,444.07,174.551641
E-990,O=C1C2(C(C3CCC4C(C3CC2)(C)CCCC4)CC1)C,-6.7,20,54.0,12.411,-0.003093934292,0.0007618021249999,-0.026461157394,0,3,244.203387,0,1,12,14.0,0.0,234.61217269027603,389.109,170.44004099999998
C-201,CC12CCC3C(CCC4CC(=O)CCC34C)C1CCC2O,-4.74,21,57.0,5.884,-0.003367355567,0.006472291412,-0.022023854958,0,5,260.2027919,0,2,15,17.0,0.0,223.984678727021,470.776,180.09261899999998
A-2470,C[C@]12CC[C@H]3[C@@H](CC[C@H]4CC(=O)CC[C@]34C)[C@@H]1CC[C@@H]2O,-4.918998851,21,57.0,4.362,-0.005445385277,0.0069675884599999,-0.034855965746,0,4,260.2027919,0,2,13,15.0,0.001,249.1373918229905,404.964,175.421502
E-991,C1C(O)CC2CCC3C4CCC(=O)C4(C)CCC3C2(C)C1,-4.4,21,57.0,3.3310000000000004,-0.0033907069919999,0.006378390474,-0.022479189794,0,4,260.2027919,0,2,16,18.0,0.0,233.33102323035632,472.612,181.005264
D-1335,C[C@]12CC[C@@H](O)C[C@@H]1CC[C@@H]3[C@@H]2CC[C@@]4(C)[C@H]3CCC4=O,-4.402,21,57.0,4.186,-0.005441173092,0.006964962275,-0.034848302677,0,4,260.2027919,0,2,13,14.0,-0.001,249.29674415005047,404.958,175.423132
B-985,C[C@]12CC[C@H](O)C[C@@H]1CC[C@@H]3[C@@H]2CC[C@@]4(C)[C@H]3CCC4=O,-4.1577,21,57.0,4.313,-0.00544415762,0.006968029277,-0.034839683502,0,4,260.2027919,0,2,13,12.0,-0.001,249.1386061444064,404.978,175.41938100000002
C-1673,CC12CCC(O)CC1CCC3C4CCC(=O)C4(C)CC(O)C23,-3.59,22,60.0,12.886,-0.0051964938569999,0.012198303876,-0.034958147387,0,6,276.20219689999993,0,3,13,13.0,0.0,250.79052604067888,447.202,183.513253
B-1056,CC12CC[C@H](O)CC1CCC3C4CCC(=O)C4(C)CC(O)C23,-3.5932,22,60.0,12.871,-0.005196376224,0.012199900168,-0.034962900235,0,6,276.20219689999993,0,3,13,13.0,0.0,250.74161282645093,447.17,183.51385
A-118,CCCCOCCOCCOCc1cc2OCOc2cc1CCC,-4.151088918,24,66.0,10.88,-0.000271900914,0.0050902786799999,-0.0213159377149999,0,8,308.2010067,0,5,22,19.0,0.0,274.5576834738179,537.68,195.993181
D-1905,CC12CCC3C(CCC4CC5SC5CC34C)C1CCC2O,-5.407,20,57.0,4.146,-0.0028921128399999,0.004276901086,-0.018019762073,0,5,276.2681744,0,1,5,14.0,0.0,253.3280003196391,430.281,192.893219
F-782,CN(C)CCCOC1(CC2=CC=CC=C2)CCCCCC1,-1.62,21,57.0,6.629,-1.7724282e-05,-0.005878990581,-0.0174195105459999,0,3,258.2100902,1,1,14,15.0,0.0,262.9795620089807,467.952,182.056783
B-2573,CCCCCCCCCCCCOC(=O)c1ccc(N)cc1,-7.8,22,60.0,7.153,-0.002348513994,-0.003029323826,-0.031637036836,0,5,274.2094951,1,2,12,13.0,0.0,260.1817303267778,541.753,182.265824
F-864,CCCCCCCCCCOC1=CC(O)=C(C(CC)=NO)C=C1,-4.06,23,63.0,12.884,-0.002963198854,0.003204835014,-0.032832326537,0,6,290.2089001,1,3,11,19.0,0.0,267.81174057207767,536.339,194.309277
A-4322,CCCCCCCCCc1ccc(OCCOCCO)cc1,-0.304510239,22,60.0,8.627,-0.0024153744219999,0.0038576076789999,-0.023020283853,0,4,276.20219689999993,0,3,11,17.0,0.0,257.8328157959984,541.686,186.478768
A-1802,CCO[P](=O)(Cc1cc(c(O)c(c1)C(C)(C)C)C(C)(C)C)OCC,-4.472808843999999,24,66.0,4.928,-0.0106710133609999,0.009557721767,-0.022634471501,0,10,323.1753638,0,4,17,15.0,0.0,315.1331928329103,434.454,205.743202
E-993,COC(C)(C)CCCC(C)CC=CC(C)=CC(=O)OC(C)C,-5.19,22,60.0,7.502999999999999,-0.001785764608,0.000153426653,-0.023764538335,0,9,276.20219689999993,0,3,10,18.0,0.0,289.8148757501994,575.62,186.346232
B-2876,COC(C)(C)CCCC(C)C\C=C\C(C)=C\C(=O)OC(C)C,-5.3459,22,60.0,7.597,-0.001775605984,0.000121665992,-0.0239129065849999,0,8,276.20219689999993,0,3,12,17.0,0.001,289.8341893176493,575.1469999999999,186.351868
A-2624,CCCCCCCCCCCC(=O)OCC(COC(C)=O)OC(C)=O,-6.378367614,25,69.0,6.528,-0.003896182463,0.009600425055,-0.0454463788819999,0,9,324.20041160000005,0,6,21,20.0,-0.001,296.98294738430445,580.9069999999999,200.29501
A-2268,CCCCCCCC(=O)OCCCOC(=O)CCCCCCC,-7.516526119,23,63.0,5.471,-0.001805086399,0.007029639733,-0.011895805027,0,6,292.2016018,0,4,15,22.0,0.0,282.76519589459224,624.123,193.487589
A-2421,CCCCCCCCCCCC(=O)NCCC[N+](C)(C)CC([O-])=O,-3.136750998,24,66.0,43.581,-0.009853984232,0.00780019664,-0.1166242903079999,0,8,304.21560330000005,2,3,10,15.0,-0.001,291.7593121267022,591.964,196.959234
A-5097,CCCCN(CCCC)C(=S)SCSC(=S)N(CCCC)CCCC,-6.240523569,22,69.0,2.411,-0.000304874843,-0.000617333893,-0.020090310447,0,8,384.4765382,1,0,22,21.0,0.0,349.03098077462914,624.386,268.259898
A-5465,CCCCCCCCCCCCCCCCCCC(O)=O,-3.775990335,21,57.0,40.07,-0.008615033695,0.0044019367729999,-0.10888851793,0,4,260.2027919,0,2,8,21.0,-0.001,252.76393919024585,560.817,181.343512
A-2318,CCCCCCCCCCCCCCCCCC(=O)OC,-8.997839085,21,57.0,9.19,-0.001079386242,-0.000661039025,-0.016419526045,0,4,260.2027919,0,2,6,19.0,0.0,260.7236300595102,584.765,183.198769
A-2455,CCCCCCCCCCCCCCCC(=O)OCC(O)CO,-4.726791601,23,63.0,11.361,-0.003003773825,0.009821678058,-0.016130515608,0,8,292.2016018,0,4,6,17.0,0.0,277.0513787440579,570.169,191.168094
B-2134,CCCCCCCCCCCCCCCCNC(=O)C(C)O,-3.6512,22,60.0,18.294,-0.005105892625,0.00447080145,-0.048245022747,0,4,274.2094952,1,2,8,20.0,0.0,270.48962195575643,575.8530000000001,188.507494
A-5702,CCCCCCCCCCCCCCCCCCCN,-5.85712424,20,54.0,6.421,-7.836249e-06,-0.009798638268,-0.025606429824,0,2,242.2106853,1,0,3,14.0,0.0,248.2773156660685,548.357,178.824094
A-4873,CCCCCCCCCCCCCCCC[N+](C)(C)C,-3.124945522,20,54.0,2.817,-2.013733e-06,-0.0077882551159999,-0.079943948605,0,3,242.2106853,1,0,2,15.0,0.0,258.3385537720355,537.5369999999999,174.600351
A-2578,CCCCCCCCCCCCCCCC[Si](OC)(OC)OC,-5.539863641,22,63.0,51.667,-5.095093e-06,-0.006030232949,-0.0513323816019999,0,8,304.2876956,0,2,9,16.0,0.0,313.3996224767618,661.875,224.422023
B-3299,Fc1cccc(F)c1C(=O)NC(=O)Nc2ccc(Cl)c(Oc3ncc(cc3Cl)C(F)(F)F)c2,-7.4033,31,93.0,12.634,-0.004557655695,0.017006750604,-0.046167074254,0,28,496.1309333,3,3,17,18.0,0.0,354.33680144555944,615.1759999999999,253.851418
A-5728,Clc1ccc2Nc3cc4C(=O)c5ccccc5Nc4cc3C(=O)c2c1Cl,-7.066625646,26,72.0,1.721,-0.0028669985869999,0.003295440334,-0.0220628604889999,0,12,371.1328094,2,2,9,17.0,0.001,286.0089923585372,482.291,229.962622
A-5872,Clc1cccc2C(=O)c3cc4Nc5c(Cl)cccc5C(=O)c4cc3Nc12,-6.457321758,25,72.0,0.0,-0.0047242932449999,0.006026116542,-0.036428504923,0,11,371.1328094,2,2,13,17.0,0.001,284.81017264337095,492.014,229.7368
A-5863,Clc1ccc2Nc3cc4C(=O)c5cc(Cl)ccc5Nc4cc3C(=O)c2c1,-7.419805396,25,72.0,0.0,-0.003429028091,0.005451958822,-0.019263634427,0,10,371.1328094,2,2,8,19.0,0.0,286.1572208042731,503.149,229.692501
B-868,c1ccc2cc3c4cccc5cccc(c3cc2c1)c45,-8.4989,20,54.0,2.041,-3.07471e-07,-0.005528264557,-0.005903234449,0,0,240.214718,0,0,10,17.0,0.0,221.3553603833812,385.494,176.537998
B-867,c1ccc2c(c1)cc3c4ccccc4c5cccc2c35,-8.2259,20,54.0,0.738,-4.03707e-07,-0.005437974649,-0.006073898503,0,0,240.214718,0,0,8,15.0,0.001,215.43612066317613,379.198,176.084549
B-3563,c1ccc2c(c1)cc3ccc4cccc5ccc2c3c45,-8.1924,20,54.0,1.827,-2.92287e-07,-0.005297169975,-0.006057937405,0,0,240.214718,0,0,7,13.0,0.0,215.4322479778789,369.379,177.435025
B-866,c1ccc2c(c1)ccc3c4cccc5cccc(c45)c23,-8.004,20,54.0,0.924,-3.81688e-07,-0.0053921945589999,-0.005938681986,0,0,240.214718,0,0,9,14.0,0.0,215.48756429673165,376.005,175.754752
C-1014,C1=CC2=C3C=CC=C4C=CC5=CC=CC(=C2C=C1)C5=C34,-7.66,20,54.0,0.995,-3.14785e-07,-0.0052146434009999,-0.005559889272,0,0,240.214718,0,0,8,15.0,0.0,215.2703825392537,363.624,177.386536
C-1013,C1=CC2=C3C(=C1)C=CC=C3C4=CC=CC5=CC=CC2=C45,-8.7,20,54.0,0.0,-1.96056e-07,-0.005172992068,-0.005429315406,0,0,240.214718,0,0,8,15.0,0.0,215.4181404807668,360.72,177.353652
A-5920,O=C1c2ccccc2Nc3cc4C(=O)c5ccccc5Nc4cc13,-7.481773695,24,66.0,0.0,-0.003243150538,0.002463027428,-0.020603820506,0,6,300.22693430000004,2,2,10,16.0,0.0,250.78516261007456,434.543,200.243779
A-6085,Oc1ccc(Nc2ccccc2)c3C(=O)c4c(c(O)ccc4[N+]([O-])=O)C(=O)c13,-8.646142991,28,78.0,19.264,-0.0074551890489999,0.019136551438,-0.054632041923,0,12,364.2245539,2,6,18,20.0,0.0,289.1191104084844,469.278,219.305239
B-1065,Oc1ccc2c(Oc3cc(O)ccc3C24OC(=O)c5ccccc45)c1,-3.8226,25,69.0,6.001,-0.006486899427,0.017185089098,-0.02320888631,0,10,320.21174260000004,0,5,13,17.0,0.0,255.61415093297947,452.575,193.02629
C-2541,OC(=O)C1=CC=CC=C1C2=C3C=CC(=O)C=C3OC4=C2C=CC(=C4)O,-3.82,25,69.0,6.301,-0.006491263882,0.0171722544039999,-0.023304172255,0,10,320.21174260000004,0,5,13,16.0,0.001,262.37156795922004,452.656,193.065797
C-1508,[NH]1C2=C(C=CC3=C2C=CC=C3)C4=C1C5=C(C=CC=C5)C=C4,-7.41,21,57.0,0.469,-1.133294e-06,-0.006193166791,-0.007841753116,0,1,254.2214212,1,0,9,15.0,-0.001,225.6279998141134,398.148,184.111066
B-862,[nH]1c2ccc3ccccc3c2c4c1ccc5ccccc45,-6.6277,21,57.0,7.388,-3.4806220000000004e-06,-0.006162546195,-0.014098421799,0,1,254.2214212,1,0,7,17.0,0.0,226.44598334148083,363.93,182.986243
A-5473,Nc1c(Oc2ccccc2)cc(O)c3C(=O)c4ccccc4C(=O)c13,-4.2192268330000005,25,69.0,3.779,-0.0038478590639999,0.008377300159,-0.023456969475,0,8,318.2190409,1,4,19,20.0,0.0,271.472828401615,465.849,202.837171
B-870,N1c2c(Sc3ccc4ccccc4c13)ccc5ccccc25,-7.9081,22,60.0,0.56,-9.844508e-06,-0.003711962453,-0.005379123007,0,3,286.2862086,1,0,9,16.0,0.0,246.30011450609985,418.342,204.297573
B-871,N1c2ccc3ccccc3c2Sc4c1ccc5ccccc45,-6.8786,21,60.0,3.37,-1.4613661e-05,-0.005102051523,-0.007127075556,0,3,286.2862086,1,0,9,12.0,0.0,246.32168838762905,413.807,204.273753
C-2383,C1CC2=CC3=CC4=C(C=CC=C4)C=C3C5=C2C1=CC=C5,-2.97,20,54.0,11.239,-1.188021e-06,-0.005784165511,-0.01275246607,0,1,240.214718,0,0,9,17.0,0.0,225.50620588806697,403.338,174.344464
B-976,C1Cc2c3ccc4ccccc4c3cc5cccc1c25,-7.8613,20,54.0,0.506,-3.086510000000001e-07,-0.0054164739659999,-0.005831675187,0,0,240.214718,0,0,11,16.0,0.0,215.9163427781744,377.698,176.827328
C-2593,OC(=O)C1=C(I)C(=C(I)C=C1I)NC(=O)CCCCC(=O)NC2=C(I)C=C(I)C(=C2I)C(O)=O,-3.39,30,96.0,6.957000000000001,-0.009483815217,0.005589132393,-0.074272449636,0,26,1125.6513853,1,6,22,24.0,0.0,474.0070571185626,811.8989999999999,416.83168
B-1915,[O-][S](=O)(=O)c1cc2C=CC(=O)\C(=N/Nc3ccc(c4ccccc34)[S]([O-])(=O)=O)c2c(c1)[S]([O-])(=O)=O,-0.8783,35,99.0,18.269,-0.03812714445,0.0385675104859999,-0.418259529305,0,30,524.4165359,2,10,10,12.0,0.001,373.5058973931794,601.644,311.706553
A-2934,Nc1c(cc(Nc2ccccc2)c3C(=O)c4ccccc4C(=O)c13)[S]([O-])(=O)=O,-2.173896088,28,78.0,4.3660000000000005,-0.011096410094,0.011722333103,-0.087388758524,0,14,380.2899364,2,5,12,17.0,0.001,301.90122940219385,460.237,238.411554
A-4136,CCOC(=O)C(=N/Nc1ccc(cc1)[N+]([O-])=O)/C(=O)C2=NN3C(=NC(=O)c4ccccc34)S2,-2.2216331,33,93.0,4.677,-0.009028266326,0.018106563413,-0.060038301489,0,14,452.3161542,6,6,28,24.0,0.001,351.24769127758185,603.544,269.526882
C-2396,O=C1OC(C2=CC=CC=C2)(C3=CC=CC=C3)C4=C1C=CC=C4,-3.85,22,60.0,6.506,-0.002496326589,0.001893842929,-0.014646794371,0,4,272.2135278,0,2,11,16.0,0.001,241.6110926516731,407.412,184.936693
A-2334,OC(=O)c1ccccc1C(=O)c2ccc(cc2)c3ccccc3,-4.828233467,23,63.0,17.291,-0.006161718386,0.008955116672,-0.0525514504409999,0,4,288.21293280000003,0,3,14,18.0,0.001,256.3372687518913,431.39,189.563041
B-216,Oc1ccc(cc1)C2(OC(=O)c3ccccc23)c4ccc(O)cc4,-2.9008,24,66.0,5.5520000000000005,-0.004918437295,0.013835215509,-0.017940845341,0,8,304.2123377,0,4,18,14.0,0.0,257.8491588166036,448.758,186.350952
B-296,O=C(Oc1ccccc1)c2ccccc2C(=O)Oc3ccccc3,-6.5891,24,66.0,3.422,-0.000424845101,-0.0006869687339999,-0.0055764915009999,0,8,304.2123377,0,4,11,14.0,-0.001,266.1979074349949,441.015,197.068309
B-2022,Cc1c(C)c2c3ccccc3ccc2c4ccccc14,-7.0109,20,54.0,2.632,-5.442360000000001e-07,-0.0052534500049999,-0.006440786429,0,0,240.214718,0,0,7,14.0,0.001,227.1459276925217,366.33,173.700459
C-964,CC1=C2C=CC3=C(C=CC=C3)C2=C(C)C4=C1C=CC=C4,-6.78,20,54.0,1.432,-5.442199999999999e-07,-0.005254971343,-0.0062226006649999,0,0,240.214718,0,0,7,14.0,0.0,227.07753477635825,366.436,173.655808
B-2534,Cc1cccc2c3cc4ccccc4cc3cc(C)c12,-7.9743,20,54.0,4.247,-5.88425e-07,-0.005519499667,-0.0073120749529999,0,0,240.214718,0,0,11,11.0,0.0,233.2328404442292,384.882,175.966419
B-2023,CCc1c2ccccc2cc3c1ccc4ccccc34,-6.796,20,54.0,6.23,-1.342133e-06,-0.005671420113,-0.012105347699,0,0,240.214718,0,0,9,13.0,0.0,224.1578505052137,395.476,178.980775
B-3176,Cn1nc(C)c(C(=O)c2ccc(Cl)cc2Cl)c1OCC(=O)c3ccccc3,-2.6514,25,75.0,5.23,-0.0016216362959999,0.0035785586109999,-0.01366077344,0,12,387.1322143,2,3,16,16.0,0.0,318.09067103692297,503.206,234.000666
A-886,Cc1ccc(N2C(=O)c3cccc4c(N)ccc(C2=O)c34)c(C)c1,-4.891655533,24,66.0,2.03,-0.00177304685,-0.002459978334,-0.024867501968,0,6,300.22693430000004,2,2,16,17.0,0.0,266.10164931288267,457.607,199.737563
A-6091,CN1C(=O)C(=N/Nc2cccc(O[S](=O)(=O)c3ccccc3)c2)\C(=C(C#N)C1=O)C,-8.782716219,30,84.0,11.06,-0.010389351183,0.011662059342,-0.042311887002,0,13,408.30334280000005,4,5,23,19.0,0.0,324.6495687416338,602.024,250.70431
B-277,Oc1ccc(cc1)C(c2ccc(O)cc2)c3ccccc3C(O)=O,-3.2626,24,66.0,13.484000000000002,-0.0073629732389999,0.0158577204869999,-0.0543178222279999,0,6,304.2123377,0,4,17,17.0,0.001,263.0891458440755,435.965,190.006368
A-5107,Cc1ccc(Sc2ccc(cc2)C(=O)c3ccccc3)cc1,-7.61540826,22,60.0,5.341,-0.001944265795,0.002048276626,-0.0116890081529999,0,4,288.2789103,0,1,10,17.0,0.0,270.67195508080727,428.131,201.897752
A-6051,CCN(CC)c1ccc2C=C(C(=O)Oc2c1)c3oc4ccc(Cl)cc4n3,-7.487633217999999,25,72.0,5.808,-0.001824536183,0.002710514563,-0.023563437377,0,10,351.6792768,2,3,18,17.0,0.0,294.1386779755747,525.952,223.52654500000003
I-83,CC1=C(CC(O)=O)c2cc(F)ccc2C\1=C\c1ccc(cc1)S(C)=O,-4.5,24,69.0,11.974,-0.0066118323849999,0.015063793546,-0.021471018742,0,10,339.2761233,0,3,23,18.0,0.0,290.3135897433148,529.872,211.021569
D-2063,CC\1=C(CC(O)=O)c2cc(F)ccc2C1=C\c3ccc(cc3)[S](C)=O,-4.552,24,69.0,12.331,-0.0066250537199999,0.015076957123,-0.021569465011,0,10,339.2761233,0,3,24,18.0,0.0,290.3153866279366,529.956,211.024143