Name,SMILES,Solubility,AtomNum,DegFreedom,Dipole,Ghb,Gsasa,Gsolv,HNum,LP,MolWt,NNum,ONum,PiCenters,PiDeloc,Quadrupole,Volume,SASA,Polarizabilty
F-828,COC1=CC2=C(C=C1)N(C(=O)C1=CC=C(Cl)C=C1)C(C)=C2CC(=O)O,-4.77,24,69.0,11.862,-0.002801199171,0.009117307903,-0.040036383823,0,9,341.66124260000004,1,4,18,19.0,0.0,281.92714094615866,480.475,210.316982
A-1125,COc1cc(NC(=O)c2cc3ccccc3cc2O)c(OC)cc1Cl,-5.062270146,25,69.0,14.273,-0.002107456115,0.003399110578,-0.044123011822,0,9,341.66124260000004,1,4,16,17.0,0.0,289.0678120513574,469.589,211.319855
A-1999,COc1cc(OC)c(NC(=O)c2cc3ccccc3cc2O)cc1Cl,-5.377540581,25,69.0,14.944,-0.002267669637,0.001506611227,-0.043077221918,0,10,341.66124260000004,1,4,16,18.0,0.0,288.46312457216266,489.454,212.016562
A-1968,CC(=O)Nc1ccc(NC(=O)c2cc3ccccc3cc2O)cc1,-5.250349512,24,66.0,3.497,-0.0020497033749999,0.002575114716,-0.0190616999,0,6,304.21560330000005,2,3,18,18.0,0.0,270.75027110920314,472.182,197.256965
A-4717,CC/1=CC(=O)C=CC1=N/Nc2ccc(Nc3ccc(cc3[N+]([O-])=O)[S]([O-])(=O)=O)cc2,-2.699363586,30,84.0,24.675,-0.02136349673,0.024285384951,-0.0993175652649999,0,16,412.2920119,4,6,21,20.0,0.0,326.60881768513315,582.927,248.5433
B-214,OC(c1ccccc1)(c2ccccc2)c3ccccc3,-2.2596,20,54.0,1.815,-0.000409797782,-0.0028214825449999,-0.006436295355,0,2,244.203387,0,1,9,15.0,0.0,229.84342220248425,385.027,170.365942
C-1478,OC1=C(C2CCCC3=CC=CC=C23)C(=O)OC4=CC=CC=C14,-4.86,22,60.0,5.827999999999999,-0.0025631264559999,0.003311863805,-0.015510282854,0,4,276.20219689999993,0,3,12,18.0,0.0,236.41287620448816,410.228,183.437818
B-2192,OC1=C(C2CCCc3ccccc23)C(=O)c4ccccc4O1,-4.8638,22,60.0,3.569,-0.002193083703,0.0034609877179999,-0.013908991325,0,4,276.20219689999993,0,3,12,15.0,0.0,236.5825773860331,409.378,183.493948
I-94,CC(=O)CC(c1ccccc1)c1c(O)c2ccccc2oc1=O,-4.78,23,63.0,1.891,-0.004557548185,0.007298625331,-0.025123214796,0,6,292.2016018,0,4,14,18.0,0.0,266.51819103350084,412.92,187.902668
A-1219,CC(=O)CC(c1ccccc1)C2=C(O)Oc3ccccc3C2=O,-3.062508747,23,63.0,7.188,-0.001224317443,0.003401501338,-0.015401685193,0,5,292.2016018,0,4,16,15.0,0.0,252.57391695001888,403.42,187.518953
C-987,CC1(O)CC(C2=CC=CC=C2)C3=C(O1)C4=C(OC3=O)C=CC=C4,-4.74,23,63.0,9.326,-0.001450811069,0.004040811657,-0.020788193839,0,5,292.2016018,0,4,14,15.0,0.0,249.71015736032064,404.595,187.214032
A-6015,CC(=O)OCCN(CCC#N)c1ccc(cc1)N=Nc2c(Cl)cc(cc2Cl)[N+]([O-])=O,-7.051424595,28,84.0,22.822,-0.007104535917,0.0102133315449999,-0.065675969079,0,15,433.140993,4,4,28,19.0,0.001,344.9399540249517,651.649,252.679844
C-1469,ClC1=CC2=C(C=C1)N(CC3CC3)C(=O)CN=C2C4=CC=CC=C4,-4.91,23,63.0,13.388,-0.001824390687,-0.0003305868669999,-0.02718503811,0,6,307.669731,2,1,13,16.0,0.0,263.9697943666191,452.595,203.39172
C-1507,CCOC(=O)C(C)OC1=CC=C(OC2=NC3=C(C=C(Cl)C=C3)N=C2)C=C1,-5.97,25,72.0,23.344,-0.0027084003169999,0.005236865712,-0.032968780927,0,9,355.6679458,2,4,20,20.0,0.0,299.8827847124745,553.335,216.643559
B-3377,CCOC(=O)[C@@H](C)Oc1ccc(Oc2cnc3cc(Cl)ccc3n2)cc1,-5.9694,25,72.0,41.514,-0.003219646392,0.0057927495239999,-0.067943936415,0,9,355.6679458,2,4,20,22.0,0.0,306.13527257457434,536.521,218.704299
C-2457,OCC(O)COC(=O)C1=C(NC2=C3C=CC(=CC3=NC=C2)Cl)C=CC=C1,-4.54,25,72.0,27.374,-0.007353619481,0.008874205726,-0.096200517305,0,11,355.6679458,2,4,22,21.0,0.001,297.1192203329462,462.861,214.88362
B-3437,Clc1ccc(CCC(Cn2cncn2)(C#N)c3ccccc3)cc1,-6.2264,24,66.0,7.258999999999999,-1.2607228e-05,-0.0104190321099999,-0.024089921693,0,5,319.6837325,4,0,25,20.0,0.001,281.84788687303035,531.2040000000001,205.626058
A-276,O=C(Nc1ccccc1)Nc2ccccc2N[S](=O)(=O)c3ccccc3,-4.578402879,26,72.0,4.237,-0.006604227412,0.003580808232,-0.0222194335319999,0,9,350.2870939,3,3,16,20.0,0.0,292.7097572954765,511.387,224.395219
B-2938,CC(Oc1ccc2ccccc2c1)C(=O)Nc3ccccc3,-5.5894,22,60.0,4.427,-0.000272414967,-0.002384373778,-0.007138097305,0,3,274.2094952,1,2,19,16.0,0.0,259.67815925898486,454.034,186.240801
A-1998,CCOc1ccc(NC(=O)c2cc3ccccc3cc2O)cc1,-5.311540545,23,63.0,12.104,-0.001617471255,0.0016716124909999,-0.020058046976,0,6,290.2089001,1,3,13,19.0,0.0,261.2314891006133,458.015,191.960898
A-1470,CCOc1ccccc1NC(=O)c2cc3ccccc3cc2O,-5.186601809,23,63.0,10.037,-0.002962175776,0.000302748735,-0.035243214864,0,6,290.2089001,1,3,19,19.0,0.0,259.8718429055679,447.187,192.268384
A-5961,CCOC(=O)OCCOc1cc(O)c2C(=O)c3ccccc3C(=O)c2c1N,-9.219529562,27,75.0,5.568,-0.005714809631,0.016379704549,-0.027718926038,0,15,354.2065198,1,7,23,18.0,0.0,291.7958517043777,542.052,210.796427
B-2676,Cc1ccc(O[P](=O)(Oc2ccccc2)Oc3ccccc3)cc1,-6.1517,24,66.0,13.643,-0.0022412392559999,-0.000148647568,-0.025118854526,0,6,323.1753638,0,4,18,23.0,-0.001,279.5185615138566,479.254,210.293693
C-2215,CC1=C2C=CC3=C(C=CC=C3)C2=CC4=C1CCCC4,-6.75,19,51.0,1.712,-4.14867e-07,-0.0052679631389999,-0.0058399943169999,0,0,228.2039821,0,0,10,14.0,0.0,214.2326003952674,367.342,165.849001
B-1529,CC(=O)CCC1C(=O)N(N(C1=O)c2ccccc2)c3ccccc3,-3.2676,24,66.0,4.013,-0.004016621473,0.008673198592,-0.0181065283019999,0,5,304.21560330000005,2,3,19,20.0,0.0,270.6029799733213,455.591,197.093624
F-855,NS(=O)(=O)C1=CC(C(=O)C2=CC=C(CNCC3=CC=CC=C3)C=C2)=CS1,-3.37,26,72.0,4.713,-0.011616623984,0.011660991362,-0.048741946665,0,8,368.34517810000006,2,3,16,19.0,0.001,307.57795892207,543.765,237.498393
C-959,CCC(=O)OCN1C(=O)NC(C1=O)(C2=CC=CC=C2)C3=CC=CC=C3,-4.91,25,69.0,12.33,-0.003147143426,0.010915797037,-0.024855910627,0,6,320.2150082,2,4,24,19.0,0.0,272.12839420439025,456.142,200.934365
F-1027,CC(=O)OC1C2=C(C=CC=C2)N(C(N)=O)C2=C(C=CC=C2)C1OC(C)=O,-3.55,26,72.0,11.172,-0.001209867337,0.003072056621,-0.0264909217419999,0,12,336.2144131,2,5,10,12.0,0.0,285.18205935397435,427.304,205.630404
F-851,NC1=CC=C(N=C(N)N2CC3=CC=CC4=CC=CC(=C43)C2)C=C1,-1.83,23,63.0,10.707,-1.150962e-05,-0.010353528717,-0.029012659903,0,4,284.2307949,4,0,16,19.0,0.0,277.5098460613054,468.419,195.929884
A-6049,CCN(CC)c1ccc(N=Nc2c(cc(cc2C#N)[N+]([O-])=O)C#N)c(C)c1,-7.47281997,27,75.0,11.298,-0.005231633987,-0.000187127657,-0.050908446465,0,7,344.2430112,6,2,28,22.0,0.0,306.18647862169263,569.2130000000001,221.313957
B-2156,CCOC(=O)C(CC(O)=O)=C(c1ccccc1)c2ccccc2,-2.1908,23,63.0,12.679,-0.0031619531579999,0.007286100293,-0.022899852508,0,6,292.2016018,0,4,17,18.0,-0.001,259.9295260639489,434.765,188.911517
B-3301,CCOCCOC(=O)C(C)Oc1ccc(Oc2ncc(cc2Cl)C(F)(F)F)cc1,-5.8739,28,81.0,4.814,-0.002488904102,0.014486550655,-0.009671344582,0,22,414.655857,1,5,20,16.0,0.0,326.1107087272693,607.611,224.005021
B-2960,CC(C)OC(=O)C(C)N(C(=O)c1ccccc1)c2ccc(F)c(Cl)c2,-4.3056,24,69.0,13.275,-0.001689402315,0.004402350626,-0.024257479522,0,13,344.66024080000005,1,3,11,14.0,0.0,291.68283519461653,449.33,208.007663
D-2087,CC(C)OC(=O)[C@H](C)N(C(=O)c1ccccc1)c2ccc(F)c(Cl)c2,-4.561,24,69.0,13.255999999999998,-0.001692796795,0.004407870783,-0.024216881098,0,13,344.66024080000005,1,3,11,15.0,0.0,291.6825123197701,449.28,208.00827
B-3087,CC(C)OC(=O)[C@@H](C)N(C(=O)c1ccccc1)c2ccc(F)c(Cl)c2,-4.4817,24,69.0,11.89,-0.002686064803,0.005967216742,-0.026314568822,0,13,344.66024080000005,1,3,11,15.0,0.0,292.0905396906299,457.597,207.340258
A-1611,C[N+](C)(C)c1ccc2C=CC(=O)C(=N/Nc3ccc(N)c(c3)[N+]([O-])=O)\c2c1,-1.39724242,27,75.0,10.383,-0.001175160435,0.003987104832,-0.085972988265,0,7,346.23571289999995,5,3,24,18.0,0.0,300.3235005568585,547.5880000000001,215.31596
A-2486,CC(=O)OCCN(CCC#N)c1ccc(cc1)N=Nc2ccc(cc2)[N+]([O-])=O,-4.280341583999999,28,78.0,20.199,-0.007235574888,0.007304074098,-0.072303330775,0,11,362.2351178,5,4,24,17.0,-0.001,310.33649374027533,602.919,218.879336
A-2760,CCN(CCC(=O)OC)c1ccc(cc1)N=Nc2snc3ccc(cc23)[N+]([O-])=O,-7.315402454,28,81.0,7.456,-0.00190471433,0.008442358436,-0.018325068507,0,11,394.2999052,4,4,22,19.0,0.0,323.9106537830565,518.741,241.531665
A-2620,CCN(CC)c1ccc(N=Nc2c(cc(cc2[N+]([O-])=O)[N+]([O-])=O)C#N)c(NC(C)=O)c1,-6.327772594,31,87.0,9.626,-0.009357294104,0.017868811725,-0.052174615185,0,13,406.2479292,7,5,29,25.0,0.0,339.3845144599375,572.22,243.799874
B-3161,CCCCOC(=O)C(C)Oc1ccc(Oc2ccc(cn2)C(F)(F)F)cc1,-5.5836,27,75.0,10.248,-0.002460975924,0.01175168892,-0.012727566069,0,15,363.2035145,1,4,18,18.0,0.0,299.2922223785617,570.359,204.125639
B-3249,CCCCOC(=O)[C@@H](C)Oc1ccc(Oc2ccc(cn2)C(F)(F)F)cc1,-5.2826,27,75.0,2.559,-0.002518502497,0.0122066342339999,-0.010755762893,0,14,363.2035145,1,4,21,18.0,0.0,300.2303914132721,550.535,205.394946
I-27,C[N@]1C[C@@H]2C[C@H]1CN2c1c(cc2c(n(cc(C(=O)O)c2=O)C2CC2)c1)F,-2.9,26,72.0,9.419,-0.004886358035,0.011075760537,-0.039480125362,0,12,337.2207097,3,3,18,18.0,0.0,273.0946413451333,475.589,200.363199
C-2211,C=CC1CN2CCC1CC2C(=O)C3=CC=NC4=C3C=CC=C4,-3.19,22,60.0,12.207,-0.001323257114,-0.002589339035,-0.032369469396,0,5,272.2167934,2,1,14,12.0,0.0,252.27921031333355,408.544,178.863273
B-4456,CCCCC1C(=O)N(N(C1=O)c2ccccc2)c3ccccc3,-3.8124,23,63.0,9.678,-0.003119873839,0.002120666277,-0.024511334867,0,5,288.2161984,2,2,16,18.0,0.0,256.5641892567696,441.592,193.334263
B-4489,CCCCC1C(=O)N(N(C1=O)c2ccc(O)cc2)c3ccccc3,-3.7329,24,66.0,5.725,-0.005414865934,0.008941991957,-0.030868064134,0,7,304.21560330000005,2,3,17,16.0,0.0,263.9373592478702,462.482,194.963602
C-994,CCCCCC1=C(N=C2C=C(O)C(=O)C3=C2C=CC=C3)C(=NO1)C,-3.18,24,66.0,5.111000000000001,-0.001776511386,0.004986323588,-0.018044716659,0,7,304.21560330000005,2,3,16,16.0,0.0,270.2753036499625,471.233,199.540518
F-1077,CN(C)C(=O)COC(=O)C1CCN2C(C(=O)C3=CC=CC=C3)=CC=C12,-3.03,25,69.0,18.011,-0.005154339201,0.008230387634,-0.047046704195,0,9,320.2150082,2,4,18,17.0,0.0,283.19121231504386,484.965,201.683402
A-927,C[N+](C)(C)c1ccc2ccc(O)c(N=Nc3ccc(N)cc3)c2c1,-1.980785388,24,66.0,16.339000000000002,-2.3089989e-05,-0.003647781066,-0.106456368109,0,4,300.2301999,4,1,23,16.0,0.0,278.919979273581,523.984,197.743545
A-2026,CC(C)(COC(=O)c1ccccc1)COC(=O)c2ccccc2,-5.422780359,23,63.0,8.536,-0.003702321285,0.007227118508,-0.01965298381,0,7,292.2016018,0,4,16,18.0,0.0,269.8193326883276,463.816,186.481543
E-376,O=C(OCc(cccc1)c1)c(c(ccc2)C(=O)OCCCC)c2,-5.64,23,63.0,9.407,-0.001165900906,0.000544506971,-0.017968292745,0,7,292.2016018,0,4,21,20.0,0.001,260.7116303824671,475.577,189.103283
G-927,Clc1ccc(CN(C2CCCC2)C(=O)Nc3ccccc3)cc1,-5.915,23,63.0,6.575,-0.00161345364,0.0015131856349999,-0.0105249460159999,0,6,307.669731,2,1,10,16.0,0.0,271.32103144938736,429.47,198.206575
A-2513,CCN(CC)c1cc(NC(C)=O)c(cc1OC)N=Nc2c(Cl)cc(cc2[N+]([O-])=O)[N+]([O-])=O,-4.667327783,31,90.0,18.768,-0.008032547188,0.015966149209,-0.043019690371,0,16,443.6935685,6,6,32,26.0,-0.001,357.8927139301809,592.206,255.821962
F-866,CCOC1=CC(=O)CC(C)C12OC1=C(C2=O)C(OC)=CC(OCC)=C1Cl,-4.7,26,72.0,4.768,-0.002680095079,0.008928573806,-0.033249397895,0,16,359.65334920000004,0,6,18,15.0,0.0,301.40461287680864,507.469,213.49813
F-812,CCCOC1=CC(=O)C2(OC3=C(C2=O)C(OC)=CC(OC)=C3Cl)C(C)C1,-5.22,25,72.0,16.553,-0.00274085742,0.004832058397,-0.0660588100509999,0,13,359.65334920000004,0,6,19,18.0,0.0,297.88054774214663,532.211,216.93804900000003
F-867,CCCOC1=CC(=O)CC(C)C12OC1=C(C2=O)C(OC)=CC(OC)=C1Cl,-4.52,26,72.0,21.444000000000003,-0.004011595115,0.004525817997,-0.077361329507,0,15,359.65334920000004,0,6,15,14.0,0.0,292.61500250537694,521.922,214.446856
C-2407,CC1CCC2=C(N3CCC(O)CC3)C(=CC4=C2N1C=C(C(O)=O)C4=O)F,-3.78,26,72.0,10.300999999999998,-0.007090647718,0.018671099389,-0.049877902141,0,11,339.2134114,2,4,18,18.0,0.0,273.0988653121197,457.893,202.726545
I-60,N(CC\C=C1\c2c(CCc3c1cccc3)cccc2)C,-4.02,20,54.0,3.83,-1.297195e-06,-0.0063215584939999,-0.00849057184,0,1,242.2106853,1,0,13,15.0,0.0,229.0462904308133,415.747,177.44679399999998
F-798,CC1=CC=C(C2=C(CC(=O)N(C)C)N3C=C(C)C=CC3=N2)C=C1,-1.3,23,63.0,8.849,-0.002460436118,-0.0018340987399999,-0.021977908574,0,4,286.2234966,3,1,12,16.0,0.0,279.0888782209936,415.355,193.351482
A-5451,CC(C)(C)c1cc(CCC(O)=O)cc(n2nc3ccccc3n2)c1O,-5.53070544,25,69.0,18.098,-0.007242161757,0.0077614932539999,-0.0629184406989999,0,9,318.2223065,3,3,18,18.0,-0.001,283.119409841052,507.261,202.393284
A-2217,COc1ccc(cc1)N2CCN(CC2)c3ccc(cc3)N4C=NNC4=O,-6.488909265,26,72.0,29.279,-0.0004291473479999,-0.006091066509,-0.057914964211,0,6,330.236308,5,2,16,17.0,0.0,285.68066727221367,492.134,212.871576
C-2501,COC1=CC2=C(C=C1OC)C(=NC=N2)N3CCN(CC3)C(=O)NC4=CSC=C4,-5.3,28,78.0,10.18,-0.002512893315,-0.001374466064,-0.048777282708,0,10,378.3005003,5,3,22,20.0,0.001,314.4473105459058,531.668,237.011991
E-681,CN(C)CCC=C2c1ccccc1COc3ccccc23,-3.4,21,57.0,8.264,-2.8775635e-05,-0.004630313977,-0.013039441376,0,2,258.2100902,1,1,13,16.0,0.0,247.65084672250725,441.543,182.764035
B-1699,CN(C)CC\C=C1/c2ccccc2COc3ccccc13,-3.9469,21,57.0,8.258,-2.8551722e-05,-0.0046387896769999,-0.013036371028,0,2,258.2100902,1,1,13,16.0,0.0,247.65564944094544,441.514,182.763426
C-2082,COC1=CC=C2C3CC4=C5C(=C(OC)C=C4)OC1C25CCN3C,-2.66,23,63.0,6.91,-0.0002493304369999,-0.004452047671,-0.017519440334,0,4,290.2089001,1,3,20,16.0,0.0,253.4895021523913,457.562,194.494588
D-1547,COC1=CC=C2[C@H]3Cc4ccc(OC)c5O[C@@H]1[C@]2(CCN3C)c45,-2.661,23,63.0,6.917000000000001,-0.000249455245,-0.004452672508,-0.0175364774389999,0,4,290.2089001,1,3,20,17.0,0.001,253.4851799260329,457.549,194.494461
C-1394,OC1=C2OC3C(=O)CCC4(O)C5CC(=C2C34CCN5CC=C)C=C1,-3.39,24,66.0,4.682,-0.005308617141,0.0135053802169999,-0.029734789295,0,8,306.208305,1,4,18,16.0,0.001,255.466171442886,466.9330000000001,196.083557
I-55,O[C@]1([C@H](N(CC=C)CC2)C3)[C@@]42C5=C3C=CC(O)=C5O[C@H]4C(CC1)=O,-2.9,24,66.0,4.61,-0.0053097698369999,0.0134948228679999,-0.029754265569,0,8,306.208305,1,4,18,17.0,0.001,255.5162032069934,466.869,196.082851
C-2388,CCN1CCN(CC1)C2=CC3=C(C=C2F)C(=O)C(=CN3C4CC4)C(O)=O,-3.18,26,72.0,14.105,-0.005884940622,0.011746420969,-0.0610226093439999,0,6,337.2207097,3,3,19,18.0,0.0,281.15271810273555,468.309,207.674848
E-984,OC(c(c(c(nc1)ccc2)c2)c1)C(N(CCC3C4C=C)C4)C3,-3.07,22,60.0,5.281000000000001,-0.001514186889,-0.001513804358,-0.014786182833,0,6,272.2167934,2,1,13,13.0,0.001,245.5157447810373,402.917,186.610595
A-4872,O[C@H]([C@H]1C[C@@H]2CCN1C[C@@H]2C=C)c3ccnc4ccccc34,-3.088723614,22,60.0,10.407,-0.001868458328,-0.002377500985,-0.027988776396,0,4,272.2167934,2,1,14,13.0,0.0,245.867990422008,414.265,185.087816
F-757,CCN(CC)CC(C1=CC=CC=C1)OC(=O)C2=CC=C(C=C2)[N+](=O)[O-],-2.84,25,69.0,12.630999999999998,-0.004343666974,0.006532754368,-0.039825267973,0,8,320.2150082,2,4,22,20.0,0.0,281.1121902888511,517.679,205.865157
B-3023,CCN(C(=O)Oc1cccc(NC(=O)OC(C)C)c1)c2ccccc2,-5.0574,25,69.0,6.02,-0.001455126538,0.006195556879,-0.014364682186,0,6,320.2150082,2,4,18,17.0,0.0,304.1930262291125,504.109,205.219095
C-1476,COC1=CC=C2C=C(C=CC2=C1)C(C)C(=O)OCC(=O)N(C)CC(N)=O,-3.78,26,72.0,32.965,-0.007044072033,0.012263168613,-0.068688372163,0,8,336.2144131,2,5,22,16.0,0.0,318.97835824836187,543.285,208.325514
E-985,c1ccc2Sc3ccccc3N(CC4CN(C)CCC4)c2c1,-4.74,22,60.0,10.584,-5.664412e-06,-0.004886803815,-0.020391757416,0,4,288.2821759,2,0,14,17.0,-0.001,256.71149123165947,478.094,205.102298
B-3722,CC12[C@@H](O)C=C[C@@]3(OC1=O)[C@@H]4CC[C@]5(O)C[C@]4(CC5=C)[C@H]([C@H]23)C(O)=O,-1.8406,25,69.0,12.261,-0.004624918416,0.019003607131,-0.033450274838,0,13,324.20041160000005,0,6,12,16.0,0.0,258.20439363498343,463.111,195.001173
B-2997,CCCCCCCCSC(=O)Oc1cc(Cl)nnc1c2ccccc2,-5.4025,24,69.0,8.197000000000001,-0.00030055953,-0.002692275738,-0.032738832194,0,9,355.7339234,1,2,11,15.0,0.0,302.0408719047346,565.273,228.647871
B-2765,CN(C=Nc1ccc(C)cc1C)C=Nc2ccc(C)cc2C,-5.4675,22,60.0,3.1180000000000003,-2.452743e-06,-0.008531166094,-0.0118925539219999,0,4,270.2240917,3,0,14,14.0,0.0,279.9563368522157,484.081,189.397847
F-917,COC1=C(OC)C=C(CCNC(=O)CNC2=CC(C(N)=O)=CC=C2)C=C1,-2.69,26,72.0,8.225,-0.005048528301,0.003340741462,-0.0527852729679999,0,7,334.22171139999995,3,4,21,20.0,0.0,295.8766427847337,577.249,211.417882
C-2330,CN(CC1=CC=C(OCCN2CCOCC2)C=C1)C(=O)C3=CC=C(O3)[N+]([O-])=O,-2.29,28,78.0,11.996,-0.0057412776619999,0.0139510333639999,-0.035472253068,0,9,366.2205212,3,6,22,24.0,0.0,309.76540783551764,541.368,220.215986
A-3609,CCN(CCO)c1ccc(cc1)N=Nc2sc3cc(OC)ccc3[n+]2C,-0.946771482,25,72.0,14.289,-0.000736176269,0.0011557487609999,-0.081577171409,0,7,348.2943922,4,2,20,18.0,0.0,301.34157509239395,544.413,224.283744
F-865,CCCCCCOC1=CC(O)=C(C(=NO)C2=CC=CC=C2)C=C1,-3.47,23,63.0,22.285,-0.000234101273,0.0014785909529999,-0.025299132862,0,7,290.2089001,1,3,13,15.0,0.0,262.21330876195884,480.167,192.595176
F-963,CCOC1=C2OC3C(O)C=CC4C5CC(=C2C43CCN5C)C=C1,-0.82,23,63.0,11.116,-0.002287256129,0.002440145343,-0.027775111879,0,6,290.2089001,1,3,19,16.0,0.0,251.158527272384,442.375,192.774025
B-212,CCOc1ccc2C[C@@H]3[C@@H]4C=C[C@H](O)[C@@H]5Oc1c2[C@]45CCN3C,-2.079,23,63.0,9.323,-0.002401093394,0.0032773900099999,-0.025881410787,0,6,290.2089001,1,3,19,18.0,0.0,251.1147529384552,450.69,192.796336
F-729,CCOC1=CC=C(C(=O)OCCNC(C)C2=CC=CC=C2)C=C1,-1.49,23,63.0,11.019,-0.001876186289,0.00025694559,-0.019064952736,0,5,290.2089001,1,3,19,19.0,0.0,270.6755535117411,517.811,191.936071
C-1432,COC1=CC=C2C=C(C=CC2=C1)C(C)C(=O)OCC(=O)N(C)CCO,-3.39,25,69.0,33.848,-0.005002719559,0.00915552246,-0.068547797252,0,8,322.2077099,1,5,21,19.0,0.0,293.5567254314892,533.888,202.261792
B-4156,CN(C)CCCN1c2ccccc2CCc3ccccc13,-4.187,21,57.0,4.921,-1.227196e-06,-0.006727220081,-0.009345085174,0,1,256.2173885,2,0,15,15.0,0.001,249.30639943526367,443.16,184.67282
E-1263,c12ccccc1nccc2C(O)C3N(C4)CCC(C4CC)C3,-2.63,22,60.0,10.154,-0.001880448184,-0.002250890579,-0.0275591502559999,0,3,272.2167934,2,1,14,17.0,0.0,245.3738440004977,416.572,186.136235
B-959,O[C@@]12CCO[C@@]1(Nc3ccccc23)[C@@H]4C[C@@H]5CCN4C[C@@H]5C=C,-2.6706,23,63.0,7.245,-0.002313809316,0.000240239758,-0.024732007495,0,5,288.2161984,2,2,15,15.0,0.0,242.78836165492416,446.5,192.993236
B-2990,O=C1CN(CC2N1CCc3ccccc23)C(=O)C4CCCCC4,-2.8927,23,63.0,12.050999999999998,-0.0036914212439999,0.005314109946,-0.025670176793,0,5,288.2161984,2,2,11,15.0,0.0,251.6395072578888,391.591,191.122582
B-2820,CC(CCc1ccccc1)NCC(O)c2ccc(O)c(c2)C(N)=O,-3.4482,24,66.0,13.546,-0.005212007195,0.008493088388,-0.039183288738,0,6,304.21560330000005,2,3,20,15.0,0.0,275.06238645411645,520.519,196.316172
C-999,COC1=CC2=C(SC3=C(C=CC=C3)N2CC(C)CN(C)C)C=C1,-4.37,23,63.0,9.493,-6.5463317e-05,-0.004454077052,-0.022578328007,0,6,304.28158080000003,2,1,14,14.0,0.0,276.92105357964124,492.761,209.389721
B-100,COc1ccc2Sc3ccccc3N(C[C@H](C)CN(C)C)c2c1,-4.2155,23,63.0,8.329,-6.4545615e-05,-0.004403268737,-0.021725507953,0,6,304.28158080000003,2,1,16,17.0,0.0,276.9031920244648,489.127,209.394265
F-786,CCN(CC)C(C)CN1C2=C(C=CC=C2)SC2=C1C=CC=C2,-2.15,21,60.0,9.588,-6.735559e-06,-0.003995578711,-0.01688263399,0,5,288.2821759,2,0,14,19.0,0.001,264.956519006465,436.582,205.594271
C-1479,CCCCNC(=O)OC1=C(O)C(=CC(=C1)\C=C(C#N)/C(=O)N(CC)CC)[N+]([O-])=O,-2.32,29,81.0,16.609,-0.007312016387,0.013168618014,-0.055645167071,0,13,380.2272245,4,6,25,23.0,0.0,324.1130710247269,569.5219999999999,227.227659
C-1484,CCN(CC)C(=O)\C(=C/C1=CC(=C(O)C(=C1)[N+]([O-])=O)OC(=O)NC(C)(C)C)C#N,-3.53,29,81.0,5.074,-0.006920603494,0.0146765008269999,-0.0367327740699999,0,15,380.2272245,4,6,31,25.0,-0.001,335.7620065194618,605.643,228.322059
C-2364,CCCOC(=O)N1C2CN3C4=C(C(COC(N)=O)C3(OC)C12)C(=O)C(=C(C)C4=O)N,-3.48,30,84.0,9.46,-0.005475304845,0.01740007994,-0.031957600267,0,14,396.2266294,4,7,35,21.0,0.0,218.50241355876943,517.383,229.939805
A-100,Cc1cc(cc(C)c1O)C(C)(C)c2cc(C)c(O)c(C)c2,-4.952868803,21,57.0,0.65,-0.001855565913,0.003854957117,-0.023829590198,0,9,260.2027919,0,2,11,12.0,0.0,260.10819349398486,469.881,182.682394
A-791,CC12CCC3C(CCC4=CC(=O)C=CC34C)C1CCC2=O,-2.820459609,21,57.0,1.803,-0.003778691105,0.006395652032,-0.021246623978,0,5,260.2027919,0,2,10,11.0,0.0,243.6496457837172,409.434,176.20273899999998
C-1859,CC12CC(=O)C3C(CCC4=CC(=O)CCC34C)C1CCC2=O,-3.48,22,60.0,12.854,-0.005196744077,0.012204328811,-0.034967009711,0,6,276.20219689999993,0,3,13,15.0,0.0,250.79126882558927,447.078,183.514209
B-933,C[C@]12CC(=O)[C@H]3[C@@H](CCC4=CC(=O)CC[C@]34C)[C@@H]1CCC2=O,-3.4843,22,60.0,10.815,-0.004844282375,0.012212716378,-0.023763111124,0,6,276.20219689999993,0,3,15,17.0,0.0,261.4751170063796,435.85,183.471821