Name,SMILES,Solubility,AtomNum,DegFreedom,Dipole,Ghb,Gsasa,Gsolv,HNum,LP,MolWt,NNum,ONum,PiCenters,PiDeloc,Quadrupole,Volume,SASA,Polarizabilty
B-3139,Clc1cc(Cl)cc(c1)c2c(Cl)ccc(Cl)c2Cl,-7.95,15,45.0,9.297,-4.54859e-07,0.001916385548,-0.020287642912,0,16,321.3935187,0,0,1,6.0,0.0,230.3404295152077,407.735,181.324028
B-3012,Clc1cc(Cl)c(c(Cl)c1)c2ccc(Cl)c(Cl)c2,-7.91,15,45.0,6.313,-2.6537e-07,0.002274530018,-0.006272390202,0,15,321.3935187,0,0,5,6.0,0.0,229.2455036695937,421.913,180.301373
B-3192,Clc1ccccc1c2c(Cl)c(Cl)cc(Cl)c2Cl,-7.3999,14,45.0,1.767,-2.04196e-07,0.001391519565,-0.002779493034,0,16,321.3935187,0,0,3,8.0,0.001,229.32246619127025,407.145,181.258762
B-2987,Clc1ccccc1c2c(Cl)cc(Cl)c(Cl)c2Cl,-7.4346,14,45.0,1.668,-2.09576e-07,0.001367466431,-0.002880010837,0,16,321.3935187,0,0,3,9.0,0.0,229.34130471709736,406.236,181.251434
B-4435,Clc1cccc(c1Cl)c2c(Cl)ccc(Cl)c2Cl,-6.7798,15,45.0,1.074,-1.6036100000000004e-07,0.001441553118,-0.003030276049,0,15,321.3935187,0,0,3,8.0,0.0,229.2447291162161,408.186,181.165286
B-4090,Clc1ccc(cc1Cl)c2cc(Cl)c(Cl)cc2Cl,-7.3867,15,45.0,1.769,-2.3119e-07,0.002135362918,-0.003338446242,0,15,321.3935187,0,0,3,8.0,0.0,229.4399970727297,427.491,180.703736
C-788,ClC1=CC=C(C=C1Cl)C2=CC(=C(Cl)C(=C2)Cl)Cl,-8.39,15,45.0,2.702,-1.85791e-07,0.002200769289,-0.007272279018,0,15,321.3935187,0,0,5,7.0,0.0,229.24639018220216,444.611,179.992715
B-2940,Clc1cccc(c1Cl)c2ccc(Cl)c(Cl)c2Cl,-7.0502,15,45.0,1.088,-2.24125e-07,0.001488423015,-0.003320464634,0,15,321.3935187,0,0,4,8.0,0.0,229.2454418262022,403.361,181.233153
G-126,Clc1cc(Cl)c(cc1Cl)c2cccc(Cl)c2Cl ,-7.21,16,45.0,9.288,-4.76162e-07,0.001770443457,-0.022319294734,0,16,321.3935187,0,0,1,6.0,-0.001,230.6048519809164,404.085,181.42932
B-3235,Clc1cccc(c2cc(Cl)c(Cl)c(Cl)c2)c1Cl,-7.4052,14,45.0,3.42,-2.11078e-07,0.001733935238,-0.0070774816729999,0,16,321.3935187,0,0,4,6.0,0.0,229.41678843514785,422.888,180.491659
B-2760,Clc1ccc(cc1Cl)c2ccc(Cl)c(Cl)c2Cl,-7.9823,15,45.0,3.227,-1.90724e-07,0.001507202824,-0.006174914782,0,15,321.3935187,0,0,4,7.0,0.0,229.25632658447608,413.918,180.941715
B-2993,Clc1ccccc1c2cc(Cl)c(Cl)c(Cl)c2Cl,-7.5226,14,45.0,2.537,-2.21529e-07,0.001275458735,-0.003762212943,0,16,321.3935187,0,0,3,8.0,0.0,229.44200010753823,397.002,181.156749
B-4088,Clc1c(Cl)c(Cl)c(c2ccccc2)c(Cl)c1Cl,-7.9107,16,45.0,3.629,-4.38644e-07,0.001082540739,-0.008052130865,0,16,321.3935187,0,0,2,8.0,0.0,229.44424774002945,393.719,180.910275
C-2260,ClC1=CC=C(OC2=C(Cl)C(=CC(=C2)Cl)Cl)C(=C1)Cl,-7.64,17,48.0,3.135,-8.5021033e-05,0.004287505738,-0.002811202805,0,17,337.3929236,0,1,3,7.0,0.0,239.53073476583089,435.31,184.560851
C-2247,ClC1=CC=C(OC2=CC(=C(Cl)C(=C2)Cl)Cl)C(=C1)Cl,-7.89,16,48.0,5.294,-4.9421628e-05,0.004074155985,-0.005628386167,0,17,337.3929236,0,1,5,9.0,0.0,238.1325711652016,443.913,184.91375
C-2264,ClC1=CC=C(OC2=C(Cl)C=C(Cl)C=C2Cl)C(=C1)Cl,-7.33,16,48.0,14.743,-3.9795985e-05,0.002889873491,-0.027867680975,0,18,337.3929236,0,1,2,6.0,0.0,239.54545212445677,434.763,185.817599
C-2252,ClC1=CC=C(OC2=C(Cl)C=C(Cl)C(=C2)Cl)C(=C1)Cl,-7.61,16,48.0,2.786,-8.306788200000001e-05,0.004317079744,-0.002564552939,0,17,337.3929236,0,1,3,7.0,0.0,239.54695802575705,435.16,184.524248
C-2266,ClC1=CC=C(Cl)C(=C1)OC2=C(Cl)C(=C(Cl)C=C2)Cl,-7.7,16,48.0,1.278,-0.000104156667,0.003308199937,-0.001271772458,0,17,337.3929236,0,1,4,9.0,0.0,238.10106043418935,424.06,185.626267
C-2259,ClC1=CC=C(Cl)C(=C1)OC2=C(Cl)C=C(Cl)C(=C2)Cl,-7.56,16,48.0,1.408,-4.10445e-05,0.00274991113,-0.001020629226,0,17,337.3929236,0,1,3,8.0,0.0,238.36437092069687,440.932,185.759568
C-2269,ClC1=CC=C(OC2=C(Cl)C(=CC(=C2Cl)Cl)Cl)C=C1,-7.76,16,48.0,0.1159999999999999,-7.1938607e-05,0.003070153019,-0.002053134309,0,18,337.3929236,0,1,3,9.0,-0.001,238.9034850972217,439.77,183.543273
C-2262,ClC1=CC=C(OC2=C(Cl)C(=C(Cl)C=C2Cl)Cl)C=C1,-7.77,16,48.0,0.291,-5.9794498000000006e-05,0.003029862073,-0.002019159442,0,18,337.3929236,0,1,4,8.0,0.0,238.9050827153025,439.788,183.599432
C-2254,ClC1=CC=C(OC2=C(Cl)C(=C(Cl)C(=C2)Cl)Cl)C=C1,-8.06,16,48.0,1.002,-8.968591200000001e-05,0.003929687908,-0.002773918853,0,16,337.3929236,0,1,4,8.0,0.0,239.40272086128925,419.148,185.188771
C-2258,ClC1=CC=C(OC2=C(Cl)C(=C(Cl)C=C2)Cl)C(=C1)Cl,-7.44,16,48.0,3.4130000000000003,-7.789947199999999e-05,0.00403105005,-0.003878918192,0,17,337.3929236,0,1,3,9.0,0.0,239.66028176009488,435.81,184.55408
C-2271,ClC1=CC=C(OC2=C(Cl)C(=CC=C2Cl)Cl)C(=C1)Cl,-7.24,17,48.0,0.984,-6.082761e-05,0.0026758215189999,-0.001499261825,0,17,337.3929236,0,1,4,6.0,0.0,238.0636471504785,425.2480000000001,185.598062
C-2250,ClC1=CC(=CC(=C1)Cl)OC2=C(Cl)C=C(Cl)C(=C2)Cl,-8.06,16,48.0,3.591,-0.000107131163,0.004229961183,-0.0027723227689999,0,17,337.3929236,0,1,3,8.0,0.0,239.6007904414653,421.973,184.671942
C-2265,ClC1=C(Cl)C(=CC=C1)OC2=C(Cl)C=C(Cl)C(=C2)Cl,-7.48,16,48.0,0.693,-4.60023e-05,0.0032629368569999,-0.003358209705,0,17,337.3929236,0,1,2,8.0,0.0,239.5709692056793,425.192,185.363695
C-2272,ClC1=CC=CC(=C1OC2=C(Cl)C=C(Cl)C(=C2)Cl)Cl,-7.12,15,48.0,1.307,-7.315266e-06,0.0018799235,-0.001941131059,0,17,337.3929236,0,1,2,8.0,0.0,238.5625406856276,432.71,186.338905
C-2268,ClC1=C(Cl)C(=CC=C1)OC2=C(Cl)C(=C(Cl)C=C2)Cl,-7.38,16,48.0,1.116,-8.9685226e-05,0.002750458609,-0.002019733961,0,17,337.3929236,0,1,4,8.0,0.0,238.30249733825383,414.361,186.220889
C-2255,ClC1=CC(=C(OC2=CC=C(Cl)C(=C2)Cl)C(=C1)Cl)Cl,-7.62,15,48.0,4.721,-5.3506263e-05,0.003640172396,-0.003697076686,0,17,337.3929236,0,1,5,8.0,0.0,238.10105484476105,449.681,185.024654
C-2251,ClC1=CC(=C(Cl)C(=C1)Cl)OC2=CC=C(Cl)C(=C2)Cl,-7.83,17,48.0,7.132000000000001,-0.000116221921,0.003660433812,-0.00705572502,0,17,337.3929236,0,1,5,8.0,0.0,238.331409726705,430.776,185.363656
C-2253,ClC1=CC(=CC(=C1)Cl)OC2=C(Cl)C(=C(Cl)C=C2)Cl,-7.86,16,48.0,3.878,-0.000106172367,0.004426402065,-0.002655509333,0,17,337.3929236,0,1,3,8.0,0.001,239.62365075331144,431.672,184.731627
C-2273,ClC1=C(Cl)C(=C(OC2=C(Cl)C=CC=C2Cl)C=C1)Cl,-7.23,16,48.0,0.884,-5.0897913e-05,0.00213391391,-0.002324302069,0,17,337.3929236,0,1,4,8.0,0.0,238.3051002530169,414.994,186.203533
C-2245,ClC1=CC=C(OC2=C(Cl)C=C(Cl)C(=C2)Cl)C=C1Cl,-7.83,16,48.0,0.291,-6.2963428e-05,0.004108243728,-0.002084365137,0,17,337.3929236,0,1,1,8.0,0.0,239.8862684121836,424.739,185.5823
C-2261,ClC1=CC=C(OC2=C(Cl)C(=CC=C2Cl)Cl)C=C1Cl,-7.35,17,48.0,2.116,-5.1531048e-05,0.0029068136829999,-0.003276115597,0,17,337.3929236,0,1,5,10.0,0.0,238.0372758300253,436.407,185.641138
C-1410,ClC1=CC=C(OC2=C(Cl)C(=C(Cl)C=C2)Cl)C=C1Cl,-7.67,16,48.0,4.408,-7.6669874e-05,0.002998381574,-0.006100707461,0,17,337.3929236,0,1,5,9.0,0.0,238.350042425805,420.919,186.015559
C-2276,ClC1=C(Cl)C(=C(OC2=CC=CC=C2)C(=C1Cl)Cl)Cl,-7.94,17,48.0,0.899,-7.388777200000001e-05,0.002083832179,-0.003533353284,0,17,337.3929236,0,1,4,8.0,0.0,238.1786917637328,421.436,185.426086
C-2243,ClC1=CC=C(OC2=CC(=C(Cl)C(=C2)Cl)Cl)C=C1Cl,-8.25,16,48.0,1.411,-9.3065884e-05,0.003969534143,-0.0034668906599999,0,17,337.3929236,0,1,2,9.0,0.001,239.6498499365385,403.849,185.466804
H-426,BrC1=CC=C(Br)C(C2=CC(Br)=CC=C2Br)=C1,-8.06,14,42.0,3.044,-0.000146432153,-0.004741202185,-0.008789431624,0,12,463.7429419,0,0,4,8.0,0.0,227.60523345540616,409.784,191.850595
B-2148,Clc1ccc2oc3ccc(Cl)cc3c2c1,-7.2135,14,39.0,0.276,-0.000158677096,0.001863967861,-0.000842382951,0,7,231.03411090000003,0,1,3,8.0,0.0,176.68178878870324,355.532,140.569618
B-4427,Clc1ccc2Oc3cc(Cl)ccc3Oc2c1,-7.8292,15,42.0,0.001,-0.000407283219,0.003411438422,-0.000291327232,0,10,247.03351580000003,0,2,2,8.0,0.0,185.85941697349503,367.84,145.00718899999998
B-2856,Clc1ccc2Oc3ccc(Cl)cc3Oc2c1,-7.1806,15,42.0,0.005,-0.000410366739,0.003407837769,-0.0003223450149999,0,10,247.03351580000003,0,2,2,8.0,0.001,185.8614614731975,367.84,145.022817
C-814,ClC1=CC2=C(OC3=C(O2)C=CC=C3)C=C1Cl,-7.23,16,42.0,1.976,-0.000263736257,0.00221037731,-0.001018975393,0,10,247.03351580000003,0,2,3,8.0,0.0,185.92477180264825,357.333,146.228578
B-1728,[O-][N+](=O)c1ccc(Oc2c(Cl)cc(Cl)cc2Cl)cc1,-5.6201,16,51.0,19.381,-0.004944002672,0.011806772494,-0.038941418656,0,13,312.4925615,1,3,10,12.0,0.0,228.3093083478133,422.379,173.183556
B-2695,ClC(Cl)C(=O)NC1=C(Cl)C(=O)c2ccccc2C1=O,-5.0261,19,51.0,2.26,-0.0022589753659999,0.0091680619869999,-0.009995674187,0,16,312.4925615,1,3,10,11.0,0.001,226.34936203834295,421.391,170.57695900000002
C-721,ClC1=CC(=C(Cl)C=C1)C2=CC(=CC=C2Cl)Cl,-7.04,15,42.0,0.001,-1.76015e-07,0.0009683142789999,-0.0034038407209999,0,12,285.94058110000003,0,0,2,6.0,0.0,212.6568949479631,380.115,160.334579
C-715,ClC1=CC(=C(C=C1)C2=CC=C(Cl)C=C2Cl)Cl,-6.51,14,42.0,11.709,-7.86316e-07,0.001317585464,-0.022157354982,0,11,285.94058110000003,0,0,5,8.0,0.0,212.59435394578492,395.209,166.052084
C-718,ClC1=CC(=C(C=C1)C2=CC(=CC=C2Cl)Cl)Cl,-7.26,15,42.0,8.617,-6.74598e-07,0.0008151282769999,-0.019777193874,0,11,285.94058110000003,0,0,3,8.0,0.0,212.4031350282226,382.756,166.61637
B-4085,Clc1cccc(Cl)c1c2c(Cl)cccc2Cl,-7.3898,15,42.0,0.0,-1.8333e-07,0.000234706728,-0.002680827417,0,12,285.94058110000003,0,0,4,7.0,0.0,211.82107067217288,375.241,166.39278000000002
B-4124,Clc1ccc(Cl)c(c1)c2cccc(Cl)c2Cl,-6.4654,15,42.0,8.755,-4.998570000000001e-07,0.000775240821,-0.018659394767,0,11,285.94058110000003,0,0,3,9.0,0.0,212.82971158714545,379.645,166.57893
B-2811,Clc1ccc(c(Cl)c1)c2cccc(Cl)c2Cl,-6.6813,15,42.0,5.445,-3.22723e-07,0.000552515678,-0.007755795483,0,12,285.94058110000003,0,0,4,9.0,-0.001,211.73041358079448,393.221,166.345345
B-3136,Clc1ccc(c(Cl)c1)c2c(Cl)cccc2Cl,-6.65,15,42.0,5.224,-2.80903e-07,0.000727964601,-0.006653416757,0,12,285.94058110000003,0,0,5,9.0,0.0,211.69378878795055,389.961,166.300589
E-1067,c1c(Cl)ccc(Cl)c1c2c(Cl)cccc2Cl,-6.8,15,42.0,4.395,-2.3723600000000002e-07,0.000756836185,-0.0057019050549999,0,12,285.94058110000003,0,0,6,9.0,0.0,211.64634749281183,389.598,166.248891
B-3078,Clc1cc(Cl)c(c(Cl)c1)c2ccccc2Cl,-6.65,16,42.0,2.224,-2.67446e-07,0.0009052265489999,-0.00354986114,0,12,285.94058110000003,0,0,5,9.0,0.0,211.3650280302276,392.944,165.801315
C-2140,ClC1=CC(=C(Cl)C(=C1)Cl)C2=CC=CC=C2Cl,-6.23,16,42.0,3.439,-2.70737e-07,0.000792020659,-0.004415307447,0,12,285.94058110000003,0,0,5,8.0,0.001,211.37465577562787,396.722,165.824742
B-4091,Clc1ccc(c(Cl)c1)c2ccc(Cl)c(Cl)c2,-6.8995,14,42.0,0.478,-2.15257e-07,0.001185391453,-0.003344935952,0,12,285.94058110000003,0,0,3,8.0,0.0,211.56389066941105,408.572,165.373599
B-4092,Clc1ccc(Cl)c(c1)c2ccc(Cl)c(Cl)c2,-6.8526,14,42.0,8.193999999999999,-5.70412e-07,0.000610864637,-0.01626981905,0,11,285.94058110000003,0,0,4,9.0,-0.001,212.9109830264396,386.727,166.575262
B-3056,Clc1cccc(c1)c2c(Cl)cc(Cl)cc2Cl,-7.1547,14,42.0,3.931,-3.92806e-07,0.001403167439,-0.003980269115,0,12,285.94058110000003,0,0,4,7.0,0.0,211.5280103695864,401.144,164.75470900000002
B-3191,Clc1cccc(c1)c2cc(Cl)c(Cl)cc2Cl,-7.1299,14,42.0,1.952,-4.08273e-07,0.000933857804,-0.0027502689649999,0,12,285.94058110000003,0,0,2,8.0,0.0,211.96952768675752,397.721,165.408756
B-3201,Clc1cccc(c1)c2ccc(Cl)c(Cl)c2Cl,-6.77,14,42.0,0.92,-3.36258e-07,0.000632366119,-0.0041533343339999,0,12,285.94058110000003,0,0,3,6.0,0.0,211.61486657253036,394.36300000000006,165.294186
B-3202,Clc1ccc(cc1)c2cc(Cl)cc(Cl)c2Cl,-6.77,14,42.0,3.729,-5.65074e-07,0.001334378665,-0.00506818836,0,12,285.94058110000003,0,0,5,7.0,0.0,211.9490028947716,409.16,163.35332
H-450,ClC1=CC=C(C2=C(Cl)C=C(Cl)C=C2Cl)C=C1,-6.94,14,42.0,3.69,-2.40979e-07,0.001438071142,-0.003184444758,0,12,285.94058110000003,0,0,6,8.0,0.0,211.4089151605917,402.406,165.689078
B-4093,Clc1ccc(cc1)c2cc(Cl)c(Cl)cc2Cl,-7.7699,14,42.0,6.077999999999999,-6.76648e-07,0.000858520123,-0.016128962107,0,11,285.94058110000003,0,0,2,8.0,0.0,212.66400755547528,390.491,166.773191
B-4094,Clc1ccc(cc1)c2ccc(Cl)c(Cl)c2Cl,-6.8754,14,42.0,8.54,-7.04108e-07,0.000563198937,-0.019239961232,0,11,285.94058110000003,0,0,3,9.0,0.0,212.39830042829888,386.542,166.71536
B-2886,Clc1ccc(Cl)c(c1Cl)c2ccccc2Cl,-6.3001,16,42.0,1.36,-1.8659000000000006e-07,0.000346127865,-0.002850887389,0,12,285.94058110000003,0,0,4,9.0,0.0,211.32712967138144,381.086,166.396797
C-2150,ClC1=CC=CC(=C1Cl)C2=C(Cl)C=CC=C2Cl,-6.3,15,42.0,1.012,-2.13907e-07,0.000287895897,-0.0030717583899999,0,12,285.94058110000003,0,0,4,8.0,0.0,211.9167465642793,380.684,166.38831000000002
B-2885,Clc1ccc(cc1Cl)c2c(Cl)cccc2Cl,-7.0199,15,42.0,6.831,-1.023908e-06,0.000388190048,-0.017067863726,0,12,285.94058110000003,0,0,3,7.0,0.0,213.0363312216359,375.772,166.020346
B-2771,Clc1cc(Cl)c(Cl)c(c2ccccc2)c1Cl,-7.25,16,42.0,10.55,-7.07687e-07,0.000357745185,-0.0237406152589999,0,12,285.94058110000003,0,0,3,8.0,0.0,213.03113522109044,373.145,166.52416000000002
B-2770,Clc1cc(Cl)cc(c1)c2cc(Cl)cc(Cl)c2,-8.3748,14,42.0,0.002,-4.0145400000000004e-07,0.00164805876,-0.006910970592,0,12,285.94058110000003,0,0,2,9.0,0.0,211.83732289594417,428.23,165.055337
C-702,ClC1=CC=C(C=C1)C2=CC(=C(Cl)C(=C2)Cl)Cl,-7.96,14,42.0,4.474,-1.7084900000000002e-07,0.00110606595,-0.007003577798,0,12,285.94058110000003,0,0,6,6.0,0.0,211.58518926448411,417.994,165.56503999999998
H-447,ClC1=CC=C(C2=CC=C(Cl)C(Cl)=C2)C=C1Cl,-8.53,14,42.0,1.702,-1.44454e-07,0.000574716518,-0.005404824543,0,12,285.94058110000003,0,0,4,8.0,0.0,212.809336811776,379.283,162.772225
B-3168,Clc1ccccc1c2cc(Cl)c(Cl)cc2Cl,-7.2505,14,42.0,9.793,-6.711159999999999e-07,0.000348234187,-0.022835798841,0,11,285.94058110000003,0,0,4,9.0,0.0,212.8152990902734,372.97,166.58167
B-4127,Clc1ccc(c(Cl)c1Cl)c2ccccc2Cl,-6.8299,16,42.0,8.889,-7.05352e-07,0.000285621827,-0.019532762512,0,12,285.94058110000003,0,0,3,8.0,0.0,212.58531687537152,371.848,166.57928
B-3169,Clc1ccccc1c2cc(Cl)c(Cl)c(Cl)c2,-6.9069,13,42.0,4.539,-2.443400000000001e-07,0.000637649613,-0.00679766825,0,12,285.94058110000003,0,0,5,8.0,-0.001,211.5108635492984,395.954,165.703869
B-4123,Clc1cccc(c1Cl)c2cccc(Cl)c2Cl,-7.2722,15,42.0,1.994,-2.33054e-07,0.000129534371,-0.004172396846,0,12,285.94058110000003,0,0,4,8.0,0.0,211.89960309834143,385.074,166.394358
C-724,ClC1=CC(=C(Cl)C(=C1Cl)Cl)C2=CC=CC=C2,-7.16,15,42.0,9.89,-6.18118e-07,0.000180092354,-0.022658081923,0,12,285.94058110000003,0,0,3,8.0,0.0,213.0960344662899,377.061,166.565685
C-2171,ClC1=CC=C(OC2=CC(=CC(=C2)Cl)Cl)C(=C1)Cl,-7.14,16,45.0,1.089,-0.000166481039,0.004365586031,-0.001129777909,0,13,301.939986,0,1,5,7.0,0.0,221.7030743768472,417.844,169.00558
C-2172,ClC1=CC=C(Cl)C(=C1)OC2=CC=C(Cl)C(=C2)Cl,-7.07,16,45.0,1.7819999999999998,-9.1788385e-05,0.002931248774,-0.001806722931,0,14,301.939986,0,1,5,9.0,0.0,220.50799217637137,420.548,170.236599
C-1378,ClC1=CC(=C(OC2=CC=C(Cl)C=C2Cl)C=C1)Cl,-6.82,15,45.0,3.705,-0.000128353951,0.003907406176,-0.002768627924,0,13,301.939986,0,1,5,8.0,0.0,221.59151724080465,420.474,168.813572
C-2173,ClC1=CC=C(OC2=CC=C(Cl)C(=C2Cl)Cl)C=C1,-7.01,15,45.0,1.3030000000000002,-8.3026981e-05,0.002944109795,-0.0028080448119999,0,13,301.939986,0,1,2,8.0,0.0,222.0055509927581,403.064,170.519409
C-2188,ClC1=CC=C(OC2=C(Cl)C=CC(=C2Cl)Cl)C=C1,-6.64,16,45.0,1.58,-6.9826825e-05,0.001990308834,-0.002515122909,0,14,301.939986,0,1,5,8.0,0.0,220.9243158281913,414.134,168.760711
C-2165,ClC1=CC=C(OC2=CC(=C(Cl)C=C2Cl)Cl)C=C1,-7.04,15,45.0,0.833,-9.8227695e-05,0.003255045796,-0.001851396486,0,13,301.939986,0,1,2,8.0,0.0,221.9727237332751,401.241,170.445928
C-2158,ClC1=CC=C(OC2=CC(=C(Cl)C(=C2)Cl)Cl)C=C1,-7.35,15,45.0,3.478,-5.2484715e-05,0.003377554145,-0.004407641852,0,13,301.939986,0,1,7,10.0,-0.001,220.8357165517356,427.463,168.28037700000002
C-2175,ClC1=CC=C(OC2=CC(=CC(=C2Cl)Cl)Cl)C=C1,-7.14,15,45.0,2.6910000000000003,-9.1753856e-05,0.0028629512699999,-0.0029422356459999,0,14,301.939986,0,1,6,7.0,0.0,220.78184903383303,424.98,168.104501
C-2179,ClC1=CC=C(OC2=C(Cl)C=C(Cl)C=C2Cl)C=C1,-6.83,15,45.0,3.772,-7.3374218e-05,0.002660550625,-0.003212223558,0,14,301.939986,0,1,6,8.0,0.0,220.9682851358322,425.254,168.122353
C-2163,ClC1=CC=C(OC2=CC(=C(Cl)C=C2)Cl)C(=C1)Cl,-7.0,15,45.0,1.554,-0.000126712022,0.00382933848,-0.00162290129,0,13,301.939986,0,1,4,8.0,-0.001,221.55930994096644,404.344,169.705354
C-2178,ClC1=CC=CC(=C1)OC2=CC(=C(Cl)C=C2Cl)Cl,-7.27,15,45.0,2.3280000000000003,-9.4075006e-05,0.002575446251,-0.004390984097,0,13,301.939986,0,1,3,8.0,0.0,222.48056848105813,386.723,169.857494
C-2181,ClC1=CC=CC(=C1)OC2=CC=C(Cl)C(=C2Cl)Cl,-7.09,15,45.0,1.324,-0.000112756995,0.002443563729,-0.002117328853,0,14,301.939986,0,1,3,9.0,-0.001,220.5314920129993,409.19,170.415541
C-2182,ClC1=CC=C(OC2=C(Cl)C=CC(=C2)Cl)C(=C1)Cl,-6.77,16,45.0,1.188,-7.445205e-05,0.002344198781,-0.001344777766,0,14,301.939986,0,1,4,7.0,0.0,220.47729854805772,422.62,170.270845
C-2192,ClC1=C(OC2=CC(=C(Cl)C=C2Cl)Cl)C=CC=C1,-7.0,16,45.0,1.911,-3.5349676e-05,0.00114480236,-0.001686796585,0,14,301.939986,0,1,3,9.0,0.0,220.69617201696065,407.578,171.56286
C-2194,ClC1=CC=C(OC2=C(Cl)C=CC=C2)C(=C1Cl)Cl,-6.74,16,45.0,1.636,-8.488347100000001e-05,0.001643436165,-0.002011388258,0,14,301.939986,0,1,4,8.0,0.0,220.443638330534,388.668,171.42846799999998
C-2159,ClC1=CC(=CC(=C1)OC2=CC=C(Cl)C(=C2)Cl)Cl,-7.32,15,45.0,3.513,-0.0001214679639999,0.004152097994,-0.001290157325,0,13,301.939986,0,1,3,9.0,0.0,222.050988535709,407.365,170.130184
C-2186,ClC1=CC(=C(OC2=CC=CC(=C2Cl)Cl)C=C1)Cl,-6.65,16,45.0,3.616,-7.9235181e-05,0.002866755909,-0.003833019922,0,13,301.939986,0,1,4,7.0,0.0,221.72196851961263,410.397,169.701952
C-2176,ClC1=C(Cl)C=C(OC2=CC=CC(=C2Cl)Cl)C=C1,-6.9,16,45.0,6.91,-9.5244091e-05,0.002330260714,-0.007415651698,0,14,301.939986,0,1,6,8.0,0.0,220.69759004781173,409.963,171.273778
C-2185,ClC1=C(Cl)C=C(OC2=C(Cl)C=CC=C2Cl)C=C1,-6.56,15,45.0,6.731,-5.3672567e-05,0.0018064680559999,-0.0089859301359999,0,14,301.939986,0,1,5,8.0,0.0,220.6905290896644,410.353,171.327911
C-2196,ClC1=C(Cl)C(=C(Cl)C(=C1)OC2=CC=CC=C2)Cl,-7.52,17,45.0,2.426,-7.9418004e-05,0.002263091825,-0.003063796545,0,13,301.939986,0,1,4,10.0,0.0,221.6399477447015,384.48,170.661374
C-2202,ClC1=C(Cl)C(=C(Cl)C(=C1)Cl)OC2=CC=CC=C2,-7.02,16,45.0,1.005,-7.9517463e-05,0.0013926855929999,-0.002979410273,0,14,301.939986,0,0,4,8.0,0.0,220.83578127553776,403.751,170.61581
C-2200,ClC1=C(Cl)C(=C(OC2=CC=CC=C2)C(=C1)Cl)Cl,-7.06,16,45.0,1.324,-6.5333394e-05,0.001388554938,-0.003085491015,0,14,301.939986,0,1,4,7.0,0.0,220.838321868985,404.07,170.643902
C-2153,ClC1=C(Cl)C=C(OC2=CC=C(Cl)C(=C2)Cl)C=C1,-6.98,15,45.0,0.115,-6.620038099999999e-05,0.0035166824459999,-0.0011930295639999,0,13,301.939986,0,1,1,7.0,0.0,222.326207029452,402.05,170.935551
B-404,Oc1c(Cl)cc(Cl)cc1Sc2cc(Cl)cc(Cl)c2O,-4.9495,16,51.0,8.883,-0.003695878274,0.011962622618,-0.026008931126,0,17,350.0041784,0,2,10,12.0,0.0,246.19633969240436,439.26,194.730877
B-676,Clc1ccc(cc1)[S](=O)(=O)c2cc(Cl)c(Cl)cc2Cl,-6.6594,17,51.0,4.517,-0.005629766905,0.00866868959,-0.018860359717,0,16,350.0041784,0,2,7,10.0,0.0,245.30060990388043,451.541,197.323324
B-1827,Clc1ccc(Sc2cc(Cl)c(Cl)cc2Cl)cc1,-7.0335,14,45.0,1.129,-7.023266e-06,0.003378566511,-0.000977288542,0,14,318.00536850000003,0,0,3,6.0,0.0,240.7752845755853,411.778,185.028258
B-3496,FC1(F)Oc2cccc(c2O1)c3c[nH]cc3C#N,-5.1395,18,48.0,4.45,-0.000605517584,0.001322529418,-0.013818669152,0,12,242.1378534,2,2,4,10.0,0.0,184.2297313275244,359.314,133.467048
F-580,C1=COC(=C1)C(=O)C2=NO[N+](=C2C(=O)C3=CC=CO3)[O-],-3.85,20,54.0,2.383,-0.004131253569,0.013767029136,-0.01548793585,0,11,268.1386667,2,6,16,16.0,0.0,204.07142088511785,391.525,147.58455700000002
A-2650,O=C1OC(=O)c2cccc3cccc1c23,-6.29705325,15,39.0,7.374,-0.003704691653,0.009032688474,-0.016116868374,0,6,192.1270456,0,3,10,11.0,0.0,155.48298249153058,303.579,120.675461
H-475,BrC1=CC(Br)=C(C2=CC=CC=C2)C(Br)=C1,-7.3,14,39.0,2.892,-0.000115799711,-0.004616625225,-0.008070105531,0,9,383.83941410000006,0,0,6,8.0,0.001,201.5901475320981,388.293,170.021544
B-2784,Clc1cc(Br)c(OC(=O)C=C)c2ncccc12,-4.7168,17,45.0,11.218,-0.001897340746,0.001479003461,-0.022122865047,0,11,305.49080919999994,1,2,10,11.0,0.0,205.57649532787792,397.076,160.755507
B-1727,[O-][N+](=O)c1ccc(Oc2ccc(Cl)cc2Cl)cc1,-5.4535,16,48.0,8.334,-0.0043488697659999,0.012362711114,-0.012384288314,0,11,277.0396239,1,3,10,12.0,0.0,211.03510357024243,400.732,156.910789