Name,SMILES,Solubility,AtomNum,DegFreedom,Dipole,Ghb,Gsasa,Gsolv,HNum,LP,MolWt,NNum,ONum,PiCenters,PiDeloc,Quadrupole,Volume,SASA,Polarizabilty
A-1050,CCC(=O)OC1C(C)CCCC1(C)C,-3.803181261,14,36.0,8.546,-5.6501255e-05,-0.0017650809659999,-0.015233798855,0,4,176.1276406,0,2,10,8.0,0.0,177.72831420096398,331.205,119.34701
A-56,CC(C)(C)CCCCCC(=O)OC=C,-4.581332511,14,36.0,12.224,-0.002538431272,0.001984531938,-0.026293921022,0,5,176.1276406,0,2,8,9.0,0.0,180.099574935348,382.181,115.419227
A-1126,CCCCC(CC)COC(=O)C(C)=C,-4.805974161,14,36.0,3.403,-0.001557409547,0.0007886045729999,-0.0174535749689999,0,6,176.1276406,0,2,8,11.0,0.0,178.179778951941,376.107,118.733102
A-1545,CC(CCCC(C)(C)OC(C)=O)C=C,-4.030164126,14,36.0,4.311,-0.000335993932,0.000401167252,-0.010589865947,0,6,176.1276406,0,2,9,12.0,0.0,182.65658083778587,366.99300000000005,115.496912
A-2678,CC(C)[C@H]1CC[C@H](C)C[C@@H]1OC(C)=O,-4.066886933,14,36.0,1.955,-0.0004220423169999,-0.0004308419079999,-0.007177962968,0,5,176.1276406,0,2,9,10.0,0.0,171.8531872876197,332.108,116.290911
A-2394,CC(C)[C@@H]1CC[C@@H](C)C[C@H]1OC(C)=O,-3.97511656,14,36.0,1.964,-0.000422398449,-0.000430871834,-0.007183171403,0,5,176.1276406,0,2,9,10.0,0.0,171.85909484997245,332.10900000000004,116.290892
A-2467,CC(=O)OC1CCC(CC1)C(C)(C)C,-3.699640669,14,36.0,3.319,-0.000595348196,0.000998451912,-0.008952084462,0,5,176.1276406,0,2,8,10.0,0.0,173.3567002272581,334.709,114.090765
A-1939,CC(=O)O[C@@H]1CCCC[C@@H]1C(C)(C)C,-4.297335855,14,36.0,5.54,-0.00051746013,-0.000652416346,-0.0087640499099999,0,4,176.1276406,0,2,12,12.0,0.0,174.305303325483,323.41,114.018896
F-378,O=S(=O)(C1CCCCC1)C1CCCCC1,-2.06,15,39.0,4.711,-0.007294020091,0.006231699155,-0.021097528732,0,4,208.192428,0,2,10,13.0,0.0,175.72349467168098,323.433,137.391451
A-1349,CCCCCC1COCCC1OC(C)=O,-2.998795888,15,39.0,6.2620000000000005,-0.001146815877,0.002553157074,-0.016600495554,0,5,192.1270456,0,3,7,11.0,0.0,175.63200142399705,369.344,123.177665
A-1927,CCCCCC(=O)OC(=O)CCCCC,-4.296805043,15,39.0,4.959,-0.003953572879,0.005499659532,-0.027866265011,0,7,192.1270456,0,3,5,9.0,-0.001,179.68581882154734,410.825,124.284592
A-3746,CCC(CO)(COCC=C)COCC=C,-1.718248447,15,39.0,5.606,-0.0003431441429999,0.00121247839,-0.022516494164,0,5,192.1270456,0,3,12,13.0,0.0,190.32728720475305,404.095,126.812829
B-3333,CC1CCCC(O1)OC2CCCC(C)O2,-1.1083,15,39.0,4.257,-0.003220249128,0.009840128517,-0.0138145914189999,0,3,192.1270456,0,3,14,16.0,0.001,59.24234758947921,414.027,122.974208
B-2634,CC(C)(CCC(C)(C)CC(O)=O)CC(O)=O,-3.1319,16,42.0,1.464,-0.002508494469,0.010865278347,-0.00484732813,0,7,208.1264505,0,4,21,15.0,0.0,212.2384847698737,377.131,124.876427
B-506,COC(=O)CCCCCCCCC(=O)OC,-3.2831,16,42.0,1.139,-0.002241386634,0.00939210193,-0.002643846641,0,6,208.1264505,0,4,14,16.0,0.0,194.4795705884422,472.8,129.817146
B-2010,CCCCCCCCCC(C(O)=O)C(O)=O,-3.3016,16,42.0,1.295,-0.002891684444,0.011954719779,-0.008580477885,0,6,208.1264505,0,4,12,15.0,0.0,190.19791762554885,426.02,128.418905
B-1792,CCOC(=O)CCCCCCC(=O)OCC,-2.5304,16,42.0,1.3090000000000002,-0.003983266367,0.008626462484,-0.017984741095,0,6,208.1264505,0,4,16,14.0,0.0,188.1963079183971,427.296,129.386333
B-810,CCCCOC(=O)CCC(=O)OCCCC,-3.0006,16,42.0,3.678,-0.003495019919,0.008651031578,-0.010672296494,0,6,208.1264505,0,4,21,12.0,0.0,188.34297795072845,427.413,129.501448
A-1325,CCCCOCCOCCOC(=O)C(C)=C,-2.015948507,16,42.0,8.379,-0.002530508192,0.006110714216,-0.02401655639,0,7,208.1264505,0,4,17,13.0,0.0,192.4360688267437,426.096,128.735529
B-2054,CCC(CC)(C(O)=O)C(CC)(CC)C(O)=O,-2.9644,16,42.0,1.086,-0.001435510552,0.00816735667,-0.001281540457,0,4,208.1264505,0,4,20,14.0,0.0,201.08088402768183,423.224,132.162288
A-1540,CC(C)OC(=O)CCCCC(=O)OC(C)C,-3.107028976,16,42.0,0.713,-0.002898630226,0.008142308027,-0.01163685709,0,8,208.1264505,0,4,12,12.0,0.0,193.6830729093345,410.713,126.676382
A-855,OC(=O)CCCCCCCCCCC(O)=O,-3.76024149,16,42.0,29.303,-0.008867444605,0.017747619702,-0.074199204603,0,5,208.1264505,0,4,14,15.0,-0.001,181.79998513111943,419.792,126.476543
A-506,CCOCCOCCOCCOC(=O)C(C)=C,-0.603011426,17,45.0,12.059,-0.0025540091459999,0.0083303501299999,-0.02557675647,0,10,224.1258554,0,5,16,13.0,0.0,201.5141255395716,444.416,133.862418
B-3194,CCCCCCOC(=O)C(C)OC(=O)C(C)O,-2.4884,17,45.0,2.8710000000000004,-0.002958779022,0.011805257718,-0.004949268824,0,7,224.1258554,0,5,20,13.0,0.0,204.64598847575408,419.61300000000006,133.023721
B-493,COCCOC(=O)CCCCC(=O)OCCOC,-1.2665,18,48.0,0.245,-0.003642549921,0.0100107684459999,-0.01972879755,0,6,240.1252603,0,6,20,16.0,0.0,215.2915614818943,475.55300000000005,140.720332
A-5237,CC(C)COC(=O)CC(C(=O)OCC(C)C)[S]([O-])(=O)=O,0.177374321,20,54.0,2.555,-0.01518445099,0.01854250193,-0.081250967646,0,14,288.1894527,0,7,21,14.0,0.0,247.7821047098812,476.667,169.167311
A-2065,CCCCCCCCCCCC#N,-5.289969947,13,33.0,1.103,-7.021728000000001e-06,-0.0074495913919999,-0.018562465534,0,2,158.135534,1,0,7,11.0,0.0,164.19323195010764,384.511,115.77772
B-1526,COCCCNc1nc(NCCCOC)nc(SC)n1,-3.4792,19,54.0,5.549,-0.000181107704,-0.005850053063,-0.027483180008,0,7,278.2259441,5,2,23,19.0,0.0,239.34404248362785,506.434,175.782624
A-4683,CCCCCCCCN1CCCC1=O,-2.257749011,14,36.0,3.663,-0.001700964522,0.000291543503,-0.013158852837,0,3,174.1349389,1,1,7,10.0,0.0,167.00134861820698,375.799,120.05876200000002
A-1143,O=C1CCCCCCCCCCCN1,-2.81950432,14,36.0,9.576,-0.002978177893,0.001105622591,-0.019929095584,0,2,174.1349389,1,1,11,12.0,0.0,162.53555233825443,317.643,119.355049
F-1110,CCCC(CCC)C(=O)NCCCC(=O)O,-1.5,16,42.0,11.774,-0.006598718036,0.011797776875,-0.0497908877159999,0,7,206.1337488,1,3,16,11.0,0.0,188.86475047875783,418.084,130.35736
A-5847,C1CCCCCCCCCCC1,-7.02202606,12,30.0,0.009,-1e-12,-0.004134785005,-0.003723136062,0,0,144.12883080000003,0,0,12,11.0,0.0,145.91265507661046,288.324,108.001371
B-2979,CCCCC(=O)NCCNC(=O)CCCC,-1.8145,16,42.0,2.879,-0.004119442881,0.005692101306,-0.0250501618599999,0,4,204.1410471,2,2,14,13.0,0.0,190.3437194113532,432.1,133.442646
B-231,CCCC(C)(COC(N)=O)COC(=O)NC(C)C,-2.9384,18,48.0,7.066,-0.002552585177,0.002928886581,-0.027857619108,0,10,236.1398569,2,4,15,13.0,-0.001,234.508339938352,444.543,142.19098300000002
F-232,CC(O)C(=O)NCCCCCCNC(=O)C(C)O,-0.7,18,48.0,23.715,-0.005844952508,0.016683560324,-0.044691650808,0,7,236.1398569,2,4,15,15.0,0.0,212.4998620118702,451.518,140.18021000000002
F-151,NC(CSCCCCCCSCC(N)C(=O)O)C(=O)O,-2.77,19,54.0,9.296,-0.0020828066199999,0.010341275063,-0.019428800284,0,8,300.2694317,2,4,27,18.0,0.0,258.06130404302587,540.225,181.745149
F-239,O=C(NCCCCCCNC(=O)OCCO)OCCO,-0.92,20,54.0,3.788,-0.006869238579,0.019183165731,-0.034432237333,0,8,268.1386667,2,6,20,16.0,0.001,219.41925499808428,485.84,150.7189
B-2078,O=[P](N1CCOCC1)(N2CCOCC2)N3CCOCC3,0.2984,20,54.0,2.408,-0.00219521477,0.008794482013,0.001066091054,0,4,281.1203221,3,4,16,16.0,0.0,225.1274201091152,388.893,170.76044
A-1986,CCCCCCCCCCCC=O,-5.061459548,13,33.0,6.382999999999999,-0.001011790028,0.001281161606,-0.0105977214109999,0,2,160.12823569999998,0,1,3,13.0,0.0,160.81399732812537,381.362,114.217876
A-2177,CCCCCCCCCCC1CO1,-5.92315685,13,33.0,6.994,-0.000314910536,-0.000622620031,-0.010366446023,0,3,160.12823569999998,0,1,5,12.0,0.0,156.13618029317428,378.024,113.899248
A-2011,CCCCCCCCCC(C)C=O,-5.151636178,13,33.0,8.747,-0.000530732952,0.001359032061,-0.0093416619799999,0,3,160.12823569999998,0,1,5,12.0,0.0,164.04859171629556,374.206,113.725579
A-1542,OC1CCCCCCCCCCC1,-3.989117726,13,33.0,8.975,-0.003072028925,0.002156030378,-0.018456206326,0,2,160.12823569999998,0,1,11,11.0,0.0,152.68974213063342,301.966,112.071471
B-1241,OCC(O)C(O)C(OC1OC(CO)C(O)C(O)C1O)C(O)CO,0.2872,23,63.0,5.718,-0.0076391082739999,0.038573963713,-0.036538267303,0,17,320.1222849,0,11,20,16.0,0.0,231.23776738252047,430.917,159.503973
A-5307,CC(C)(C)CCCCCCCC(O)=O,-2.111396949,14,36.0,20.315,-0.0061301349439999,0.0066877578489999,-0.054037980344,0,5,176.1276406,0,2,8,10.0,0.0,175.83839174546117,379.478,114.389395
A-862,CCCCCCCCCCCC(O)=O,-4.619583571000001,14,36.0,23.757,-0.007265294323,0.0066095495819999,-0.077012734175,0,4,176.1276406,0,2,5,9.0,0.0,168.70865716728,396.461,118.360047
A-1462,CCCCCCCCCCOC(C)=O,-4.985758302,14,36.0,6.652,-0.001007745623,0.001251149614,-0.016191779133,0,4,176.1276406,0,2,9,14.0,0.0,172.21136687586937,395.279,118.952619
B-594,CCCCCCCCCC(=O)OCC,-4.1006,14,36.0,14.194,-0.002732921925,0.0017687312969999,-0.03714711989,0,4,176.1276406,0,2,6,10.0,0.0,171.98037509304797,398.31,119.885438
A-1448,CCCCCCC(CCCC)C(O)=O,-4.959305967,14,36.0,0.6629999999999999,-0.000960692771,0.003121606769,-0.009283143914,0,4,176.1276406,0,2,6,10.0,0.0,175.47912984084363,402.573,120.558112
A-692,CO[Si](OC)(C1CCCC1)C2CCCC2,-4.632799679,15,39.0,5.332000000000001,-2.955511e-06,-0.004391271554,-0.0247212352,0,5,204.2131393,0,2,14,12.0,0.0,198.58743429935257,396.048,144.266045
A-922,CC(C)[Si](OC(=O)C=C)(C(C)C)C(C)C,-4.943737963,15,39.0,5.417999999999999,-9.947735e-05,-0.002777469659,-0.01293921782,0,5,204.2131393,0,2,13,11.0,0.001,213.98051829058485,384.95,138.825487
A-749,CCCCC(CC)C(=O)OOC(C)(C)C,-3.669517691,15,39.0,1.17,-0.0008752421039999,0.001801951949,-0.007292542867,0,6,192.1270456,0,3,13,14.0,0.001,203.63031120290748,395.812,124.538151
A-3434,CCCCCCOC1O[C@H](CO)[C@@H](O)[C@H](O)[C@H]1O,-0.658698746,18,48.0,7.45,-0.004872495444,0.018469734919,-0.035253476993,0,11,240.1252603,0,6,16,12.0,0.0,194.0133912568346,415.833,137.453054
A-1753,CCC1(C)OOC(C)(CC)OOC(C)(CC)OO1,-4.304855444,18,48.0,1.5,-0.0031548355209999,0.009946497258,-0.018844739612,0,14,240.1252603,0,6,11,12.0,0.0,241.21635854773825,434.166,139.877959
A-978,CCCCCCCCCC(=O)N(C)C,-2.76811118,14,36.0,6.582000000000001,-0.002312864665,0.000291987592,-0.023779286218,0,5,174.1349389,1,1,4,11.0,0.0,176.11625249109426,394.576,120.714452
A-4920,[NH3+]CCCCCCCCCCCC([O-])=O,-3.1963980910000003,15,39.0,18.405,-0.005874984107,0.004345247694,-0.0567529200079999,0,5,190.1343438,1,2,9,12.0,-0.001,177.33903686741718,412.344,123.782332
D-11,CCCCCCCCCCCC,-6.41,12,30.0,0.053,-2.518215e-06,-0.005278005738,-0.015315634129,0,2,144.12883080000003,0,0,0,11.0,0.0,155.55184720040214,368.043,110.485962
A-1953,CCCCCCCCCCCCO,-4.984746451,13,33.0,6.395,-0.0010104154009999,0.0012811584949999,-0.010590331755,0,2,160.12823569999998,0,1,3,13.0,0.0,160.80780885784162,381.336,114.218192
A-2526,CCCCC[C@H](CCC)CCCO,-5.156360408,13,33.0,1.765,-0.000959563886,0.001384779541,-0.0139914533789999,0,3,160.12823569999998,0,1,6,12.0,0.0,164.48977575050026,373.762,114.529855
A-2549,CCCCCCC(CO)CCCC,-5.270303761,13,33.0,6.674,-0.0001560756309999,0.000964442968,-0.0166740192739999,0,3,160.12823569999998,0,1,12,11.0,0.0,162.8872120748693,377.108,115.069992
A-2510,CCCCCCOCCCCCC,-4.270303761,13,33.0,4.708,-1.3398429e-05,-0.0033200882179999,-0.019589036206,0,3,160.12823569999998,0,1,12,13.0,0.001,164.43173662711294,386.24,115.760448
A-3929,CCCCOCCOCCOCCCC,-1.862006084,15,39.0,5.974,-1.1407276e-05,0.001441907134,-0.0170618985699999,0,5,192.1270456,0,3,16,15.0,0.0,182.7029308664224,422.467,125.910447
A-348,CCC(C)(OOC(C)(C)C)OOC(C)(C)C,-4.45076092,16,42.0,8.686,-0.001937377525,0.0085561244,-0.015478199531,0,8,208.1264505,0,4,14,12.0,0.001,239.96510709214365,360.398,127.627345
A-5541,CCCCCCCCCCCCS,-7.573831768,13,33.0,8.7,-2.6563008e-05,-0.001329413823,-0.009107464184,0,2,176.19361819999995,0,0,3,13.0,0.0,173.47981191018596,405.55300000000005,129.164249
A-5741,CC(C)C(C)(C)C(C)(C)C(C)(C)S,-7.711832977999999,13,33.0,7.383999999999999,-6.5606921e-05,-0.0013839973989999,-0.010643639545,0,4,176.19361819999995,0,0,8,9.0,0.0,208.0276936207324,332.05800000000005,125.993135
B-740,CCCCCCCCCCCCN,-3.3759,13,33.0,1.112,-7.021944999999999e-06,-0.007449551509,-0.018557958726,0,2,158.135534,1,0,7,11.0,0.001,164.19280403331794,384.519,115.777693
B-831,CCCCCCNCCCCCC,-3.1574,13,33.0,0.138,-3.13713e-06,-0.00591344211,-0.022358816863,0,2,158.135534,1,0,8,12.0,0.0,165.170548889002,387.605,117.584271
A-1623,CCCCCCCCCCN(C)C,-4.045287835,13,33.0,3.458,-2.487635e-06,-0.005575670756,-0.015532050088,0,3,158.135534,1,0,3,8.0,0.0,168.57439353969522,382.853,116.404368
B-461,CCCCN(CCCC)CCCC,-3.1157,13,33.0,1.295,-2.525998e-06,-0.005575672641,-0.023551546952,0,3,158.135534,1,0,12,12.0,-0.001,167.76995286262894,384.885,118.74231
A-4634,CCCCCCCCN(CCO)CCO,-2.1910376030000003,15,39.0,2.048,-0.003236985869,0.007595449186,-0.022489892823,0,3,190.1343438,1,2,13,14.0,0.001,179.05548795884346,411.388,126.094983
F-463,CCCCCCCCCNCC(O)CO,-2.64,15,39.0,5.694,-0.004122264528,0.006101033088,-0.0310839126709999,0,3,190.1343438,1,2,11,12.0,0.001,178.19234064482484,414.762,125.805655
B-1870,CCC(O)CN(CC(O)CC)CC(O)CC,-0.5229,16,42.0,2.735,-0.002972901564,0.0125997038489999,-0.020705337312,0,7,206.1337488,1,3,14,12.0,0.0,194.9451982211952,395.2,128.814079
F-237,CCCCCCS(=O)(=O)NS(=O)(=O)CCCCCC,-2.2,19,51.0,3.991,-0.017230194464,0.013882622803,-0.100823324425,0,10,286.26272850000004,1,4,12,12.0,0.0,240.0290620117516,482.609,180.395854
B-1945,CCCCO[P](=O)(CCCC)CCCC,-1.7166,15,39.0,2.123,-0.003625214283,0.000690046514,-0.011026074232,0,2,207.1014026,0,2,20,15.0,0.0,194.1692565598113,431.702,144.31933700000002
B-232,CCCCO[P](=O)(CCCC)OCCCC,-2.6995,16,42.0,2.29,-0.00649964919,0.002390061384,-0.015092581032,0,5,223.1008076,0,3,19,15.0,0.0,202.24129849685505,441.882,149.38866000000002
A-1222,CC(C)CO[P](=O)(OCC(C)C)OCC(C)C,-3.002154647,17,45.0,2.569,-0.012519704896,0.005213724316,-0.020191938002,0,9,239.1002125,0,4,15,10.0,0.0,238.35920334952883,387.393,151.358022
A-2329,CCCCCCCCCCCCO[P](O)([O-])=O,-3.784486057,17,45.0,36.694,-0.006066546824,0.013019274853,-0.132701466931,0,8,239.1002125,0,4,10,19.0,0.0,204.82929469687213,459.292,154.800291
F-136,CCCCOP(=O)(OCCCC)OCCCC,-2.85,17,45.0,6.074,-0.01030745199,0.004695750928,-0.018077563774,0,8,239.1002125,0,4,18,12.0,0.0,210.9466066105629,388.941,151.892729
B-1512,CCCC[P](=O)(CCCC)CCCC,-0.5932,14,36.0,1.979,-0.002708464304,0.000259752567,-0.0087957135869999,0,2,191.1019977,0,1,19,10.0,0.0,185.93936474045265,415.421,139.153986
E-660,O=P(SCCCC)(SCCCC)SCCCC,-5.14,16,45.0,8.222999999999999,-0.000827141335,0.002402890202,-0.009896185912,0,7,287.29636,0,1,18,15.0,0.001,248.6413254055593,493.041,199.52813
B-2200,CCN(CC)CCSCCN(CC)CC,-2.3663,15,39.0,8.816,-0.000293111735,-0.003498197398,-0.031435561305,0,5,204.2070246,2,0,12,14.0,0.001,200.6991662396915,438.849,147.488779
B-1982,CCCO[P](=S)(OCCC)O[P](=S)(OCCC)OCCC,-4.1009,20,57.0,1.877,-0.011435848988,0.005532796936,-0.040624848023,0,15,350.2029542,0,5,18,15.0,0.0,303.8104408787492,505.694,228.557462
B-2699,Brc1ccc(c(Br)c1Br)c2c(Br)c(Br)c(Br)c(Br)c2Br,-9.351,16,54.0,2.9130000000000003,-0.000206421765,-0.005511532068,-0.013154874324,0,24,783.3570530000001,0,0,1,7.0,0.0,302.77801851140225,522.248,278.67658900000004
H-245,ClC1=C(Cl)C=C2C(=C1)OC1=C(Cl)C(Cl)=C(Cl)C(Cl)=C21,-10.66,15,51.0,0.451,-5.7564601e-05,0.004770215041,-0.003071102029,0,19,372.8458612,0,1,1,7.0,0.0,247.29546618316087,442.426,200.405303
C-2439,ClC1=CC2=C(C(=C1Cl)Cl)C3=C(O2)C(=C(Cl)C(=C3)Cl)Cl,-10.3,17,51.0,0.494,-7.0422334e-05,0.004896334358,-0.0033596422619999,0,19,372.8458612,0,1,1,7.0,0.001,247.6094631643573,444.21,200.326263
B-4428,Clc1cc2Oc3c(Cl)c(Cl)c(Cl)c(Cl)c3Oc2cc1Cl,-10.9486,17,54.0,0.6809999999999999,-0.000121406943,0.004851570499,-0.002664515475,0,22,388.8452661,0,2,0,6.0,0.0,256.484153869068,458.992,205.458146
B-2950,Clc1ccc(Cl)c(c1Cl)c2c(Cl)c(Cl)c(Cl)c(Cl)c2Cl,-9.1,16,54.0,0.773,-9.3349e-08,0.004226773663,-0.003318301262,0,24,427.7523314,0,0,2,7.0,0.001,281.84407768535675,471.481,225.644564
C-1000,ClC1=C(Cl)C(=C(Cl)C(=C1)Cl)C2=C(Cl)C(=CC(=C2Cl)Cl)Cl,-9.38,17,54.0,0.0,-1.3314e-07,0.004579933396,-0.002717491877,0,24,427.7523314,0,0,0,6.0,0.001,282.50232061974936,479.583,225.709172
B-3213,Clc1cc(Cl)c(c(Cl)c1)c2c(Cl)c(Cl)c(Cl)c(Cl)c2Cl,-9.48,16,54.0,3.382,-1.77115e-07,0.004850249269,-0.0036006630729999,0,24,427.7523314,0,0,2,6.0,0.0,281.9139803791812,486.754,225.014623
B-3144,Clc1cc(Cl)c(Cl)c(c1)c2c(Cl)c(Cl)c(Cl)c(Cl)c2Cl,-9.42,16,54.0,2.915,-1.85334e-07,0.00493335941,-0.004413746557,0,24,427.7523314,0,0,2,6.0,0.0,281.8852825325578,492.057,225.04577200000003
B-2766,Clc1cc(Cl)c(c(Cl)c1Cl)c2c(Cl)cc(Cl)c(Cl)c2Cl,-9.1,16,54.0,0.049,-1.45807e-07,0.004508979754,-0.003008311698,0,24,427.7523314,0,0,0,7.0,0.0,282.42222952949,477.306,225.686938
B-2873,Clc1cc(Cl)c(c(Cl)c1Cl)c2c(Cl)c(Cl)cc(Cl)c2Cl,-9.1999,16,54.0,0.212,-1.35811e-07,0.0045726005709999,-0.002747547832,0,24,427.7523314,0,0,0,7.0,0.0,282.4735246131383,479.429,225.703638
B-3214,Clc1cc(cc(Cl)c1Cl)c2c(Cl)c(Cl)c(Cl)c(Cl)c2Cl,-9.6997,16,54.0,2.883,-1.90502e-07,0.004538621442,-0.008386097638,0,24,427.7523314,0,0,2,7.0,0.0,282.0913605879112,481.456,224.999989
B-2952,Clc1cc(c(Cl)c(Cl)c1Cl)c2c(Cl)c(Cl)cc(Cl)c2Cl,-9.29,16,54.0,0.441,-1.51342e-07,0.004646982999,-0.003181631512,0,24,427.7523314,0,0,0,6.0,0.0,282.5034025182856,485.999,225.715719
B-2955,Clc1ccc(c(Cl)c1Cl)c2c(Cl)c(Cl)c(Cl)c(Cl)c2Cl,-9.29,16,54.0,0.841,-1.26541e-07,0.0042734123139999,-0.004264001705,0,24,427.7523314,0,0,1,6.0,0.0,281.97922274707537,479.367,225.661169
B-2953,Clc1cc(Cl)c(cc1Cl)c2c(Cl)c(Cl)c(Cl)c(Cl)c2Cl,-9.5,16,54.0,0.139,-1.6494599999999997e-07,0.004564566156,-0.002679438698,0,24,427.7523314,0,0,0,6.0,0.0,282.2280486672962,482.421,225.778625
B-2898,Clc1cc(Cl)c(c(Cl)c1Cl)c2cc(Cl)c(Cl)c(Cl)c2Cl,-9.42,16,54.0,0.4579999999999999,-1.69852e-07,0.004560182,-0.0035388689769999,0,24,427.7523314,0,0,0,7.0,0.001,282.4716692558965,480.731,225.714413
C-992,ClC1=CC(=C(Cl)C(=C1Cl)Cl)C2=CC(=C(Cl)C(=C2Cl)Cl)Cl,-9.16,17,54.0,0.077,-1.49627e-07,0.004537662832,-0.003991214683,0,24,427.7523314,0,0,0,6.0,0.0,282.47402656414687,489.397,225.702972
C-1500,ClC1=C(Cl)C(=C(OC2=C(Cl)C(=C(Cl)C(=C2Cl)Cl)Cl)C=C1)Cl,-10.6,17,57.0,1.352,-1.4929367e-05,0.004672990373,-0.0040067876439999,0,26,443.7517364,0,1,1,6.0,-0.001,290.89477751618966,499.638,230.71179300000003
C-1501,ClC1=C(Cl)C(=C(Cl)C(=C1)Cl)OC2=C(Cl)C(=C(Cl)C(=C2)Cl)Cl,-10.1,17,57.0,0.0559999999999999,-5.1104078e-05,0.0052638730149999,-0.002049294749,0,26,443.7517364,0,0,0,6.0,0.0,291.5646666800087,491.481,230.738429
C-1499,ClC1=C(Cl)C=C(OC2=C(Cl)C(=C(Cl)C(=C2Cl)Cl)Cl)C(=C1)Cl,-10.1,17,57.0,0.205,-3.7161388e-05,0.005105036153,-0.001888428429,0,26,443.7517364,0,1,0,6.0,0.0,291.3057694671137,489.246,230.8204
C-2427,ClC1=CC(=C(Cl)C(=C1Cl)Cl)OC2=CC(=C(Cl)C(=C2Cl)Cl)Cl,-10.1,18,57.0,1.029,-5.0562647e-05,0.005471082517,-0.002584466777,0,26,443.7517364,0,0,0,6.0,0.0,291.474192808735,504.296,230.765485
B-1492,CCO[P](=O)(OCC)O[P](=O)(OCC)O[P](=O)(OCC)O[P](=O)(OCC)OCC,0.2956,19,81.0,535.768,-3.128194064259,0.016458873214,-348.804474481776,0,73,476.0161428,0,8,0,20.0,0.0,181.7157691468937,889.7239999999999,1946.209957
A-4780,CO[Si](CCCCCC[Si](OC)(OC)OC)(OC)OC,-2.792947984,20,54.0,7.592,-0.002173490449,0.0036583060869999,-0.030672447203,0,6,296.2962577,0,6,26,15.0,0.0,273.6167017862486,510.996,180.956667
B-1125,C[Si]1(C)O[Si](C)(C)O[Si](C)(C)O[Si](C)(C)O[Si](C)(C)O[Si](C)(C)O1,-7.9407,24,66.0,8.728,-0.001056238517,0.002270827727,-0.035126872622,0,12,408.6382526,0,6,16,13.0,0.001,426.323278343884,509.751,287.382282
B-3020,Clc1cc2oc3c(Cl)c(Cl)c(Cl)cc3c2cc1Cl,-9.1609,16,48.0,0.456,-5.8206081000000006e-05,0.003825571777,-0.002773774928,0,17,337.3929236,0,1,1,7.0,0.0,229.9987951755029,426.441,185.607981
B-4430,Clc1ccc2Oc3c(Cl)c(Cl)c(Cl)c(Cl)c3Oc2c1,-9.4728,16,51.0,1.495,-0.0001719697799999,0.004128182633,-0.002719421825,0,19,353.3923285,0,2,3,8.0,-0.001,238.663345371705,434.719,190.027031
B-2942,Clc1ccc(Cl)c(c1Cl)c2c(Cl)c(Cl)cc(Cl)c2Cl,-7.94,16,51.0,0.875,-1.06974e-07,0.003545439907,-0.0025999601079999,0,22,392.2993939,0,0,1,7.0,0.0,264.4869370897627,453.745,210.832612
B-2943,Clc1ccc(Cl)c(c1Cl)c2c(Cl)cc(Cl)c(Cl)c2Cl,-8.1501,16,51.0,0.86,-1.07921e-07,0.003537509219,-0.00266734431,0,22,392.2993939,0,0,2,7.0,0.0,264.4922559304073,453.715,210.824986
B-3210,Clc1ccc(c(Cl)c1)c2c(Cl)c(Cl)c(Cl)c(Cl)c2Cl,-8.9706,15,51.0,1.022,-1.51922e-07,0.00364094849,-0.0031258670809999,0,21,392.2993939,0,0,3,7.0,0.0,264.44698473195047,462.893,210.360669