Name,SMILES,Solubility,AtomNum,DegFreedom,Dipole,Ghb,Gsasa,Gsolv,HNum,LP,MolWt,NNum,ONum,PiCenters,PiDeloc,Quadrupole,Volume,SASA,Polarizabilty
A-5824,CC(C)CCCCCCCOC(=O)C(C)=C,-6.055946608999999,16,42.0,6.285,-0.00229441043,0.001065545126,-0.020639838292,0,5,200.1491124,0,2,12,14.0,0.0,207.27751645599983,437.395,136.429802
A-2590,CCCCCCCCCCCC(=O)OC=C,-5.354799685,16,42.0,18.4,-0.002877718249,0.001104983589,-0.045726552556,0,4,200.1491124,0,2,6,11.0,0.0,196.0075801596536,445.171,137.893922
A-1978,CCCC(=O)OCCC(C)CCC=C(C)C,-5.142612081,16,42.0,5.445,-0.0026741046759999,0.001160254238,-0.022243577344,0,6,200.1491124,0,2,7,10.0,-0.001,207.85352309700409,437.717,137.298928
A-2506,CCOC(OCC)\C=C(C)\CCC=C(C)C,-2.354799685,16,42.0,5.305,-8.2619685e-05,-0.0035755583889999,-0.020682041166,0,5,200.1491124,0,2,10,14.0,0.0,211.47840035739105,429.159,138.874356
A-1302,CCOC(C)OC(C)(CCC=C(C)C)C=C,-3.976401784,16,42.0,8.785,-0.000119345137,-0.002271023323,-0.018438789583,0,5,200.1491124,0,2,9,13.0,0.0,218.1598786906861,397.537,134.917862
B-1650,CC(C)C(C)C(C)C(O)C#CC(C)C(C)O,-2.2756,16,42.0,9.521,-0.000336086773,0.005110970512,-0.015510340275,0,5,200.1491124,0,2,8,14.0,0.0,221.2581198401157,420.918,134.000777
B-595,CCOC(=O)CCCCCCCCC(=O)OCC,-3.5091,18,48.0,2.814,-0.00427544464,0.007988711587,-0.025208734514,0,6,232.14792230000003,0,4,16,15.0,-0.001,212.27112902084423,474.353,147.360613
A-971,CCCCOC(=O)CCCCC(=O)OCCCC,-3.86815387,18,48.0,3.119,-0.003824498873,0.00798916106,-0.014972277917,0,6,232.14792230000003,0,4,20,13.0,-0.001,212.4706655452908,474.107,147.445766
B-1518,OC(=O)CCCCCCCCCCCCC(O)=O,-3.1112,18,48.0,36.628,-0.009834452866,0.017196561479,-0.091757345826,0,5,232.14792230000003,0,4,14,16.0,0.0,205.84304028259183,467.15,144.414374
B-573,CCOCCOC(=O)CCCCC(=O)OCCOCC,-2.065,20,54.0,5.038,-0.003832523813,0.0122597019509999,-0.01385389319,0,9,264.1467321,0,6,24,18.0,0.0,230.6408924304709,509.346,157.780444
B-2686,CCCC(=O)OCCOCCOCCOC(=O)CCC,-1.5598,20,54.0,10.219,-0.005292328667,0.012440211097,-0.026613631281,0,9,264.1467321,0,6,16,16.0,0.0,230.9309071614442,510.671,157.577003
A-3223,CCCCC(CC)CN(CCC(O)=O)CCC([O-])=O,0.410469265,19,51.0,23.633000000000003,-0.015830105917,0.017885445236,-0.153482940435,0,8,246.1546255,1,4,26,16.0,0.0,220.48446625658215,488.5630000000001,157.120994
F-722,C1CCC(NCCNC2CCCCC2)CC1,-0.98,16,42.0,0.439,-1.585316e-06,-0.00593601142,-0.024248800419,0,0,196.163709,2,0,10,15.0,0.0,185.68328639904985,384.207,138.55037099999998
B-2914,CCCCCC(=O)NCCNC(=O)CCCCC,-3.1079,18,48.0,3.738,-0.0063040394649999,0.0041973813339999,-0.035885047554,0,6,228.16251890000004,2,2,6,16.0,0.0,214.86644348392383,483.285,151.13094099999998
A-5437,CCCCCCCC(=O)NCCCC[C@H](N)C(O)=O,0.057570824,19,51.0,10.884,-0.002343309015,0.0015438892439999,-0.030090626759,0,6,244.1619238,2,3,14,14.0,0.001,193.5039029861065,489.63,155.098522
B-4251,CCCO[P](=S)(OCCC)SCC(=O)N1CCCCC1C,-4.1504,20,57.0,2.2840000000000003,-0.001377080222,0.0020523591959999,-0.012439682063,0,10,325.2585574,1,3,16,17.0,0.0,291.44427872979,548.737,214.178665
A-2178,CCCCCCCCCCCCC1CO1,-5.984684801,15,39.0,7.71,-0.000384264195,-0.001269538961,-0.012809877676,0,3,184.1497075,0,1,5,14.0,0.0,180.1638977326633,424.793,131.884228
A-1591,COC1(CCCCCCCCCCC1)OC,-4.125654352,16,42.0,3.05,-2.9776328e-05,-0.004213762845,-0.009864639041,0,3,200.1491124,0,2,14,13.0,0.0,195.59277185021216,387.646,138.133994
B-3750,CCCCCCCCCCCCCC(O)=O,-5.3293,16,42.0,30.619,-0.008097385868,0.006030142475,-0.0945030763539999,0,5,200.1491124,0,2,4,11.0,0.0,192.7315163691786,443.673,136.337764
A-761,CCC(O)COC1CCCCC1C(C)(C)C,-3.698734262,16,42.0,8.064,-0.0016010556699999,0.0016067184299999,-0.01689916012,0,5,200.1491124,0,2,12,14.0,0.0,210.76278114374747,360.349,134.503903
A-5801,CCCCC(CC)COC(=O)OOC(C)(C)CC,-6.088238681,18,48.0,11.054,-0.000890054941,0.00780159435,-0.017187594124,0,7,232.14792230000003,0,4,17,13.0,0.0,241.75079913836143,423.292,147.389649
F-1093,CCCCCCCCSC1C(O)C(O)OC(CO)C1O,-2.91,20,54.0,4.384,-0.005476447443,0.017219309467,-0.03116903998,0,10,280.2121146,0,5,12,16.0,0.0,229.1061036807588,466.331,170.508382
A-4655,CCCCCCCCCCCC(=O)OCC[S]([O-])(=O)=O,-2.408479245,20,54.0,40.31,-0.018590128477,0.017537789361,-0.106019223114,0,14,280.2121146,0,5,7,11.0,0.0,235.1068340175352,522.769,175.795091
A-1196,CCCCCCCCCCCC(=O)N(C)C,-3.909307051,16,42.0,8.36,-0.002426768073,-0.000394965553,-0.028286758943,0,5,198.1564107,1,1,5,12.0,0.0,200.11377415891533,441.013,138.714659
F-441,CC(C)CC(CC(C)C)(CC(C)C)C(=O)NO,-4.0,17,45.0,0.486,-0.0031476414289999,0.005931968478,-0.019530142181,0,5,214.1558156,1,2,15,14.0,0.0,236.41651622893824,438.83,142.989048
F-443,CCCCCCCCCCC(C)(C)C(=O)NO,-4.8,17,45.0,4.016,-0.004236150601,0.007178616994,-0.022112389377,0,4,214.1558156,1,2,7,15.0,0.0,222.5504057566608,455.977,143.214541
F-440,CCCCCCCCC(CC)(CC)C(=O)NO,-5.22,17,45.0,2.6010000000000004,-0.00260182379,0.005290868642,-0.0185109269189999,0,5,214.1558156,1,2,10,12.0,0.0,221.39995754828368,443.73,143.975006
F-442,CCCCCCC(CCC)(CCC)C(=O)NO,-2.82,17,45.0,4.699,-0.003227431869,0.004647322793,-0.029845332818,0,7,214.1558156,1,2,14,13.0,0.0,214.5955983438542,424.003,145.015276
D-16,CCCCCCCCCCCCCC,-7.456,14,36.0,0.0139999999999999,-2.743672e-06,-0.005947587356,-0.017949924082,0,2,168.15030259999995,0,0,0,14.0,0.0,179.532291074263,414.734,128.510396
A-2147,CCCCCCCCCCCCCCO,-5.787142557,15,39.0,7.428,-0.001094634435,0.000615061541,-0.0127744424359999,0,2,184.1497075,0,1,3,13.0,0.0,184.79070298266916,428.059,132.215987
B-2691,CCCCCCCCCCC(O)CCC,-5.8370000000000015,15,39.0,5.731,-0.001946189617,0.000644444694,-0.023428781534,0,3,184.1497075,0,1,5,9.0,0.0,188.32645990892647,421.448,132.407321
A-326,CCCCCCCCCCCCOCCO,-1.4593774080000002,16,42.0,5.973,-0.001824457471,0.002479475717,-0.020296227431,0,3,200.1491124,0,2,7,16.0,0.0,194.08516001299003,447.32,137.33780900000002
A-2382,CCCCCCCCCCCCN(C)C,-4.426122744,15,39.0,7.647,-2.408281e-06,-0.00658960588,-0.015193329463,0,2,182.1570058,1,0,7,11.0,0.0,198.6864964386525,434.337,135.38212099999998
A-5235,CN(C)CCCNC1CC(C)(C)NC(C)(C)C1,0.316191362,17,45.0,8.572000000000001,-4.921353e-06,-0.007452644223,-0.031090514923,0,5,210.1704122,3,0,12,14.0,0.0,227.5166899201796,434.36300000000006,147.890314
B-3380,CCCCO[P](=O)(OCCCC)OCCCCOCC,-2.6468,20,54.0,7.526,-0.011112689568,0.004885437624,-0.025858132069,0,8,279.1210892,0,5,22,18.0,0.0,243.40537260249695,516.9580000000001,177.566645
B-457,CC(O)CN(CCN(CC(C)O)CC(C)O)CC(C)O,0.534,20,54.0,3.199,-0.0044453705829999,0.017960324141,-0.025552238079,0,5,260.1613287,2,4,21,18.0,0.0,252.50762907906383,482.673,158.78547
A-2633,CCCCCCCC[Si](OCC)(OCC)OCC,-6.327740788,18,48.0,4.553,-0.000189502699,-0.004391133224,-0.016627544546,0,3,244.2340161,0,3,21,18.0,0.0,235.66990131670207,506.047,169.435191
A-6055,CCO[Si](CC(C)CC(C)(C)C)(OCC)OCC,-6.4416841410000005,18,48.0,3.366,-0.0007580726639999,0.000679791141,-0.006402096788,0,6,244.2340161,0,3,20,14.0,0.0,259.7181616341948,402.164,159.154034
A-2541,C[Si](C)(C)O[Si](C)(C)O[Si](C)(C)O[Si](C)(C)O[Si](C)(C)O[Si](C)(C)C,-5.661813632,25,69.0,6.1770000000000005,-0.000116379174,-0.000186047608,-0.040411889415,0,10,416.6603195,0,5,21,17.0,0.0,496.6486134420505,653.0740000000001,330.597615
A-5559,Brc1c(Br)c(Br)c(CCc2c(Br)c(Br)c(Br)c(Br)c2Br)c(Br)c1Br,-9.129987804,18,66.0,0.01,-0.000248716469,-0.006320342125,-0.016954494728,0,30,967.1855804,0,0,2,7.0,0.0,367.65650669616446,603.124,339.544492
B-3225,OC(=O)c1c(Cl)c(Cl)c(Cl)c(Cl)c1C(=O)Nc2cccc(Cl)c2Cl,-4.5051,21,66.0,21.394,-0.006173480705,0.011598317625,-0.111867477138,0,24,442.8728461,1,3,11,13.0,0.0,302.75815157091245,490.241,234.719484
B-3278,Fc1cccc(F)c1C(=O)NC(=O)Nc2cc(Cl)c(F)c(Cl)c2F,-7.3023,22,66.0,8.021,-0.001690365806,0.011155586252,-0.015443192805,0,21,375.0620067,2,2,10,14.0,0.001,262.8756224670192,446.749,188.662487
A-6038,Clc1ccc(c(Cl)c1)C(=O)OOC(=O)c2ccc(Cl)cc2Cl,-8.27876503,21,60.0,2.689,-0.002538041514,0.00926900358,-0.019413502748,0,20,373.9596726,0,4,7,9.0,0.0,268.07049248356054,502.064,202.664136
C-966,FC1=C(C(=CC=C1)F)C2=NN=C(N=N2)C3=C(Cl)C=CC=C3,-6.12,20,57.0,2.928,-0.000133843951,-0.001563828265,-0.008848861026,0,13,297.62685930000004,4,0,8,12.0,0.0,230.0653989833573,413.31,173.02371499999998
B-2910,OC(=O)c1cc(Oc2ccc(cc2Cl)C(F)(F)F)ccc1[N+]([O-])=O,-3.4791,23,66.0,16.235,-0.009305431691,0.026735429599,-0.0690432265209999,0,21,354.6021775,1,5,15,16.0,-0.001,251.2223015669405,475.765,176.19806
B-2831,Brc1cc(Br)c(OCCOc2c(Br)cc(Br)cc2Br)c(Br)c1,-6.5363,18,60.0,2.033,-0.000393252955,-0.004057807429,-0.011703565296,0,22,679.5702791,0,2,7,8.0,0.001,304.5163378130717,569.943,262.329343
A-4124,Nc1c(cc(Br)c2C(=O)c3ccccc3C(=O)c12)[S]([O-])(=O)=O,-1.305537302,22,60.0,17.887,-0.014739079596,0.015362066705,-0.079841663845,0,15,374.1223456,1,5,14,13.0,0.0,242.21504544820567,423.955,200.691775
B-3199,Clc1ccccc1c2nnc(nn2)c3ccccc3Cl,-5.4817,20,54.0,1.493,-1.561309e-06,-0.00485689781,-0.009469413525,0,10,295.0829906,4,0,9,13.0,0.0,234.6278071286787,418.092,181.892546
B-1997,Clc1ccc(cc1)C(=C(Cl)Cl)c2ccccc2Cl,-6.3563,17,48.0,9.546,-7.472e-07,0.000131332044,-0.019510023902,0,11,309.96205289999995,0,0,7,10.0,-0.001,237.58349090683657,413.08,184.704552
B-4179,Clc1ccc(cc1)C(=C(Cl)Cl)c2ccc(Cl)cc2,-6.9004,16,48.0,1.6980000000000002,-2.36852e-07,0.000983242917,-0.002684488531,0,12,309.96205289999995,0,0,4,9.0,0.0,237.8078292935749,424.74300000000005,183.45497
B-1081,Oc1ccc(cc1C(=O)C(=O)c2cc(ccc2O)[N+]([O-])=O)[N+]([O-])=O,-3.5214,24,66.0,0.005,-0.0113403878729999,0.033057935715,-0.039005059171,0,16,324.1589484,2,8,22,20.0,0.001,243.98026021032348,463.072,170.91734
B-708,S(Sc1sc2ccccc2n1)c3sc4ccccc4n3,-4.5218,19,54.0,2.314,-6.434038e-06,0.001322350041,0.000297714044,0,10,324.4228587,2,0,10,10.0,-0.001,252.3172423781271,434.836,217.415068
B-4332,O=C1C(=O)c2ccccc2c3ccccc13,-4.4435,16,42.0,8.096,-0.002499525648,0.005242776363,-0.016442850082,0,4,200.1491124,0,2,10,12.0,0.0,171.68045178467818,323.624,133.71818100000002
A-5545,O=C1c2ccccc2C(=O)c3ccccc13,-6.039760498,16,42.0,0.0,-0.002559460588,0.004856156794,-0.012335479009,0,4,200.1491124,0,2,10,12.0,0.0,171.53317649654838,323.759,133.722501
B-769,Oc1cccc2C(=O)c3ccccc3C(=O)c12,-4.4213,17,45.0,5.095,-0.003784167849,0.008890847891,-0.023844998013,0,5,216.1485174,0,3,12,13.0,0.0,178.38863683853606,333.11400000000003,137.65121100000002
B-1315,Oc1ccc2C(=O)c3ccccc3C(=O)c2c1,-5.3093,17,45.0,3.492,-0.004550840598,0.0120363991559999,-0.015968011628,0,6,216.1485174,0,3,11,13.0,-0.001,178.86976933308793,342.505,135.085172
B-154,Oc1ccc2C(=O)c3ccccc3C(=O)c2c1O,-2.7785,18,48.0,5.867999999999999,-0.003562450146,0.013928691181,-0.014559708358,0,8,232.14792230000003,0,4,12,13.0,0.0,186.6497484919492,348.55300000000005,143.05711100000002
B-294,Oc1ccc2C(=O)c3cc(O)ccc3C(=O)c2c1,-5.8892,18,48.0,0.0,-0.0065636763489999,0.019187110812,-0.020163467307,0,8,232.14792230000003,0,4,12,11.0,0.0,186.1405588735268,361.133,136.27770900000002
C-2286,OC1=CC=CC2=C1C(=O)C3=C(C=CC=C3O)C2=O,-5.19,18,48.0,9.594,-0.004906320936,0.01283476063,-0.0376556136879999,0,5,232.14792230000003,0,4,15,10.0,0.0,185.26022582309,342.175,141.596307
A-2206,Oc1ccc(O)c2C(=O)c3ccccc3C(=O)c12,-6.253493517000001,18,48.0,4.171,-0.0033727652759999,0.013113117933,-0.014292909183,0,8,232.14792230000003,0,4,13,15.0,0.0,186.54185961597065,344.559,143.11003200000002
B-274,Oc1cc(O)c2C(=O)c3ccccc3C(=O)c2c1O,-4.6024,19,51.0,2.96,-0.0043986455729999,0.019730973534,-0.014198117762,0,9,248.1473272,0,5,14,14.0,-0.001,199.2183100411233,367.264,147.805892
B-280,O[S](=O)(=O)c1cccc2C(=O)c3cccc(c3C(=O)c12)[S](O)(=O)=O,1.2572,24,66.0,14.654000000000002,-0.0240235822269999,0.026059235518,-0.078071397101,0,18,360.2751168,0,8,16,17.0,0.0,251.86843227984247,426.733,205.207431
B-679,O[S](=O)(=O)c1cccc2C(=O)c3c(cccc3[S](O)(=O)=O)C(=O)c12,0.2572,24,66.0,0.615,-0.024630441595,0.027253630122,-0.07248123646,0,16,360.2751168,0,8,18,18.0,0.001,251.8078316725491,431.735,205.175903
B-1806,OC(=O)c1ccccc1C(=O)c2ccc(Br)cc2,-3.0074,17,48.0,13.649,-0.005880701696,0.010007414616,-0.0480230603,0,7,296.05204510000004,0,3,14,13.0,0.0,208.57395156488892,388.161,159.41171200000002
B-2894,COC(=O)c1cc(Oc2ccc(Cl)cc2Cl)ccc1[N+]([O-])=O,-5.9343,20,60.0,11.577,-0.004120847086,0.014451707161,-0.018429807441,0,16,333.05990560000004,1,5,10,12.0,0.001,260.414386013952,471.704,185.399049
C-2249,ClC1=CC=C(C=C1)C(C2=C(Cl)C=CC=C2)C(Cl)(Cl)Cl,-7.13,17,51.0,6.664,-5.76019e-07,0.000799991065,-0.013063071902,0,14,345.4149905,0,0,10,12.0,0.0,257.27628369069697,429.145,197.990838
B-4173,Clc1ccc(cc1)C(c2ccc(Cl)cc2)C(Cl)(Cl)Cl,-7.8092,17,51.0,2.242,-1.98489e-07,0.001649593994,-0.001961367412,0,15,345.4149905,0,0,8,10.0,0.0,257.62291731122133,444.403,196.90942
B-4190,OC(c1ccc(Cl)cc1)(c2ccc(Cl)cc2)C(Cl)(Cl)Cl,-5.6657,18,54.0,5.023,-0.002766928313,0.004544617274,-0.02873580326,0,17,361.4143954,0,1,7,10.0,0.0,265.6628449955926,456.076,198.373234
F-409,O=C(NC(=O)C1=C(F)C=CC=C1F)NC1=CC=C(Cl)C=C1,-6.54,20,57.0,16.778,-0.004413329781,0.008603368653,-0.05010714069,0,13,301.6122628,2,2,13,13.0,0.001,231.361689990278,426.37,168.464248
B-301,OC(=O)c1ccccc1C(=O)c2ccc(Cl)cc2,-2.7171,17,48.0,16.296,-0.00607178742,0.0117794025949999,-0.0493575377489999,0,7,251.6014549,0,3,14,13.0,0.0,205.90800010180888,379.219,152.74027
D-1913,OC(=O)C1(O)c2ccccc2c3ccc(Cl)cc13,-4.1610000000000005,17,48.0,4.101,-0.002140854491,0.009053236826,-0.004294373957,0,7,251.6014549,0,3,15,16.0,0.001,202.7614313376432,386.817,153.81454499999998
F-726,NC1=C2C=CC(C(F)(F)F)=CC2=NC2=C1C=CC=C2,-2.17,19,51.0,5.752999999999999,-0.000270311779,0.000909814896,-0.008951486358,0,11,253.1589185,2,0,7,13.0,0.0,198.29194312329133,371.847,146.481884
F-723,NC1=C2C=CC=CC2=NC2=CC=CC(C(F)(F)F)=C21,-2.48,19,51.0,6.158,-0.000236792068,0.000547459585,-0.013798851762,0,11,253.1589185,2,0,8,13.0,0.0,198.72156926850428,358.42900000000003,145.795545
B-680,Nc1ccc2C(=O)c3ccccc3C(=O)c2c1,-6.1366,17,45.0,1.7380000000000002,-0.002606531691,0.003408463425,-0.015040861477,0,5,214.1558157,1,2,11,12.0,0.0,183.65900643644108,335.266,140.05505
E-927,c1ccc2C(=O)N=C(c3ccccc3)Oc2c1,-4.61,17,45.0,6.273,-0.002225966859,0.001261034822,-0.01659550056,0,4,214.1558157,1,2,12,14.0,0.0,183.6067064200721,354.264,140.146985
B-1584,O=C1OC(=Nc2ccccc12)c3ccccc3,-4.6084,17,45.0,4.089,-0.002326221087,0.001483424989,-0.013620908307,0,4,214.1558157,1,2,12,12.0,-0.001,183.5554897614913,354.319,140.06602
B-3586,[O-][N+](=O)c1c2ccccc2cc3ccccc13,-6.2918,17,45.0,5.756,-0.003314318533,0.004208890002,-0.015805134606,0,4,214.1558157,1,2,11,12.0,0.001,182.19207961914088,332.635,141.354702
C-2112,O=C(OC1=CC=CC(=C1)N=C=S)C2=CC=CC=C2,-4.85,17,48.0,2.343,-0.001541747983,0.003202964963,-0.006928526994,0,4,246.2206031,1,2,15,15.0,0.0,210.75000882252803,419.754,159.318861
B-678,Nc1ccc(O)c2C(=O)c3ccccc3C(=O)c12,-3.824,18,48.0,8.179,-0.0028097314769999,0.006272929654,-0.02175679424,0,6,230.1552206,1,3,11,12.0,0.0,189.42345719402024,337.561,145.059112
C-2067,O=C(C1=CC=CC=C1)C2=CC=CC(=C2)N=C=S,-5.4,17,45.0,4.5360000000000005,-0.0017757708629999,0.004100869628,-0.007489467964,0,3,230.2211981,1,1,15,14.0,0.0,203.20309127026317,385.035,155.47626
B-865,C1c2cccc3ccc4cccc1c4c23,-5.2379,15,39.0,0.894,-2.22255e-07,-0.004325982953,-0.004349054592,0,0,180.1610385,0,0,3,10.0,0.0,161.26118786518504,301.657,132.241313
A-2699,Clc1ccc(NC(=O)CBr)c(c1)C(=O)c2ccccc2Cl,-6.888808288,20,57.0,7.484,-0.000921512406,0.001243704512,-0.013663801676,0,13,376.9759545,1,2,11,13.0,0.0,258.9474497903487,457.385,201.095659
A-2053,Fc1ccccc1C(=O)c2cc(Cl)ccc2NC(=O)CBr,-5.569345786,20,57.0,5.28,-0.001956369862,0.005283537372,-0.015042153197,0,13,360.52142010000006,1,2,12,15.0,0.0,253.6274575462817,451.204,189.597309
F-1100,BrC1=CC=CC(NC2=NC=NC3=CC4=C(C=NN4)C=C32)=C1,-3.96,21,57.0,4.954,-7.6190299e-05,-0.009347164154,-0.015260566908,0,7,330.09808230000004,5,0,15,13.0,0.0,240.1987712345315,434.359,188.350512
B-1527,OC1N=C(c2ccccc2Cl)c3cc(Cl)ccc3NC1=O,-3.6036,19,57.0,2.611,-0.001731885325,0.007305450851,-0.00470580794,0,8,311.07912989999994,2,2,16,13.0,0.001,247.82087332294057,413.374,185.434169
A-5045,ON1CC(=O)N=C2C=CC(=CC2=C1c3ccccc3Cl)Cl,-4.4653328210000005,20,57.0,0.672,-0.00306202744,0.007838769658,-0.01747398085,0,10,311.07912989999994,2,2,11,16.0,0.0,241.55349757369552,428.072,186.41111
A-2140,COC(=O)c1ccc(cc1[N+]([O-])=O)C(=O)Nc2cc(Cl)ccc2Cl,-5.965154646,23,66.0,3.444,-0.002600821653,0.012236578406,-0.008439281011,0,16,359.0773447,2,5,15,15.0,0.0,280.4351161435127,509.186,201.59899
B-3098,FC(F)(F)Oc1ccc(NC(=O)NC(=O)c2ccccc2Cl)cc1,-7.1568,23,66.0,4.739,-0.001911789642,0.00918985865,-0.009278494995,0,19,348.6208067,2,3,13,13.0,0.0,260.4785504227411,469.314,185.925647
F-1109,C1C(=O)NC2=C(C=C(C=C2)[N+](=O)[O-])C(=N1)C3=CC=CC=C3Cl,-4.41,22,60.0,4.714,-0.004425626798,0.01006628019,-0.018745547855,0,10,305.6323005,3,3,10,13.0,0.001,242.28697245123584,398.163,181.991042
C-2350,FC1=C(C2SCC3=NC4=C(C=CC=C4)[N]23)C(=CC=C1)F,-3.76,20,54.0,5.569,-0.000140565292,0.000228835177,-0.006147144131,0,9,278.23603860000003,2,0,8,11.0,0.0,216.976223138154,382.784,171.73236200000002
A-1327,Oc1ccc(cc1)C(c2ccc(O)cc2)(C(F)(F)F)C(F)(F)F,-3.179502969,23,63.0,0.263,-0.002369137738,0.018938416716,-0.004372949709,0,22,326.1502673,0,2,10,8.0,-0.001,237.4528196191606,410.263,146.782217
C-2157,N#CC(=NNC1=CC=C(C=C1)N=NC2=CC=CC=C2)C#N,-4.92,21,57.0,4.239,-7.82546e-06,-0.0125244752499999,-0.029831363797,0,5,264.2012578,6,0,13,13.0,0.001,240.7094714419253,437.986,174.23407
A-2193,Cc1ccc2C(=O)c3ccccc3C(=O)c2c1,-6.117146249,17,45.0,3.318,-0.002505844369,0.004637238181,-0.012909252087,0,5,212.1598483,0,2,9,12.0,0.0,186.5831932260851,340.105,142.214351
B-1484,OC(=O)c1c2ccccc2cc3ccccc13,-3.4174,17,45.0,0.465,-0.001203437098,0.005078953476,0.001930518184,0,2,212.1598483,0,2,20,16.0,0.0,183.9265903794661,390.617,145.089403
B-3425,OC(=O)c1ccccc1C2OC(=O)c3ccccc23,-3.1042,19,51.0,7.819,-0.004083282001,0.010531749051,-0.015258969579,0,8,244.1586582,0,4,10,12.0,0.0,200.9396924040752,369.404,150.241002
C-2385,CSC1=CC=C2OC3=C(C=C(C=C3)C(O)=O)C(=O)C2=C1,-5.32,20,54.0,4.26,-0.003363373934,0.0144371573149999,-0.008973854458,0,7,276.22344560000005,0,4,17,17.0,0.0,229.03001131273868,430.295,171.234158
C-2432,C[S](=O)C1=CC=C2OC3=C(C=C(C=C3)C(O)=O)C(=O)C2=C1,-5.02,21,57.0,5.997999999999999,-0.008504431733,0.019639938768,-0.027590200691,0,9,292.2228505,0,5,18,16.0,0.0,241.677577956758,437.865,178.24323
C-2398,OC1=CC2=C(C(=C1)O)C(=O)C=C(O2)C3=CC(=C(O)C=C3)O,-3.61,21,57.0,12.455,-0.006089212728,0.027398860375,-0.017150649763,0,9,276.157468,0,6,16,16.0,0.0,224.0968275141816,429.776,160.545875
A-1247,Oc1ccc(c(O)c1)C2=C(O)C(=O)c3c(O)cc(O)cc3O2,-3.082409058,22,60.0,3.306,-0.00691671165,0.028374361545,-0.020837116052,0,12,292.1568729,0,7,18,14.0,0.0,225.6913819807646,412.496,164.517075
C-2442,OC1=CC2=C(C(=C1)O)C(=O)C(=C(O2)C3=CC=C(O)C(=C3)O)O,-1.99,22,60.0,11.416,-0.006600904566,0.029052765464,-0.033193655263,0,11,292.1568729,0,7,20,19.0,0.0,226.09474834042348,444.909,165.843865
B-2899,CCOc1cc(Oc2ccc(cc2Cl)C(F)(F)F)ccc1[N+]([O-])=O,-6.4939,23,66.0,1.821,-0.0043876843939999,0.017088442261,-0.026307902182,0,19,350.6135085,1,4,11,14.0,0.0,261.2581206980227,445.499,179.722891
G-907,OC3N=C(c1ccccc1)c2cc(Cl)ccc2NC3=O ,-3.952,19,54.0,3.398,-0.001707592385,0.005869783182,-0.00484662496,0,5,275.6261923,2,2,17,15.0,0.0,228.5195146106872,391.815,171.430344
B-1895,COC(=O)C1(O)c2ccccc2c3ccc(Cl)cc13,-4.1836,18,51.0,3.285,-0.0015695475199999,0.00543454674,-0.003226619382,0,8,263.6121908,0,3,14,13.0,0.0,218.77477344314903,409.839,161.291272
A-1110,O=C1N=C(NC(=N1)c2ccccc2)c3ccccc3,-5.493585254,19,51.0,6.507999999999999,-0.002622950214,-0.000707498171,-0.019970719183,0,4,238.180553,3,1,14,13.0,0.0,209.15606813302776,383.913,155.02242900000002
C-910,[O-][N+](=O)C1=CC=C2NC(=O)CN=C(C3=CC=CC=C3)C2=C1,-3.8,21,57.0,7.247000000000001,-0.0056859446939999,0.009544347663,-0.026133052763,0,6,270.17936289999994,3,3,16,16.0,0.0,222.96804364847773,379.292,168.03878500000002