Name,SMILES,Solubility,AtomNum,DegFreedom,Dipole,Ghb,Gsasa,Gsolv,HNum,LP,MolWt,NNum,ONum,PiCenters,PiDeloc,Quadrupole,Volume,SASA,Polarizabilty
A-168,CCCCC(CC)C(=O)OC=C,-4.151910976,12,30.0,1.658,-0.00148478239,0.001815833448,-0.010803448607,0,3,152.1061688,0,2,9,11.0,0.0,149.52658683924273,347.81199999999995,102.794744
A-4142,CC(C)(O)C1CCC(C)(O1)C=C,-1.799728458,12,30.0,5.627000000000001,-0.000265554323,0.000195840491,-0.008028955927,0,5,152.1061688,0,2,8,9.0,-0.001,155.94174910755618,306.092,99.836861
A-296,CC(C)[C@@]12CC[C@@](C)(O1)[C@@H](O)C2,-0.288092629,12,30.0,4.125,-0.000321315851,0.004426338184,-0.005277428948,0,6,152.1061688,0,2,7,8.0,0.0,150.368611491206,296.872,98.723608
B-1763,CC(=C)C1CCC(C)(O)C(O)C1,-0.2311,12,30.0,4.202,-0.000775310191,0.006727344335,-0.005204358738,0,5,152.1061688,0,2,12,13.0,0.0,145.9381637609855,330.291,98.558104
A-793,CC(OC(C)=O)C1CCCCC1,-3.597623767,12,30.0,1.775,-0.00042800294,0.001838355961,-0.003340318357,0,4,152.1061688,0,2,9,10.0,-0.001,143.75901978145774,304.092,96.196339
F-203,OC(=S)CCCCCCCCC(O)=S,-3.07,14,36.0,2.3280000000000003,-0.003144242695,0.0145918923839999,-6.8817973e-05,0,6,216.2357437,0,2,10,12.0,0.0,184.5788616023608,409.015,138.370039
B-3327,CC(C)(OC1CCCCC1)C(O)=O,-1.0798,13,33.0,1.099,-0.000777067108,0.004458445867,0.000491216602,0,4,168.1055738,0,3,14,12.0,0.0,157.32315244060516,332.324,103.84743
A-3459,C(CCOCC1CO1)COCC2CO2,-0.560813739,14,36.0,0.231,-0.00099327003,0.008067135054,-0.003911742196,0,6,184.1049787,0,4,18,13.0,0.0,151.90563692552945,380.995,109.425055
B-1495,CCCCCCCC(C(O)=O)C(O)=O,-2.0411,14,36.0,2.402,-0.002798563694,0.012809011948,-0.00430539726,0,6,184.1049787,0,4,12,14.0,0.0,165.10029089199583,392.586,110.477089
B-2647,CCCCC(CCC(O)=O)CC(O)=O,-1.3974,14,36.0,12.504,-0.006309221703,0.01798271091,-0.033054724783,0,5,184.1049787,0,4,17,12.0,-0.001,160.1222511273176,369.192,109.441801
B-812,CCOC(=O)CCCCC(=O)OCC,-1.6795,14,36.0,2.734,-0.003648822027,0.009255409818,-0.011851993762,0,6,184.1049787,0,4,15,9.0,0.001,164.09819969960492,380.262,111.422429
B-491,CCCC(=O)OCCOC(=O)CCC,-2.6069,14,36.0,5.465,-0.0040289552049999,0.008631881247,-0.0174178097029999,0,8,184.1049787,0,4,6,10.0,0.0,164.6998865380285,378.151,111.374513
A-924,CC(C)OC(=O)CCC(=O)OC(C)C,-1.729316846,14,36.0,0.432,-0.002501825283,0.008803497053,-0.0057793091099999,0,8,184.1049787,0,4,13,11.0,-0.001,169.54963110963496,363.872,108.761805
B-620,OC(=O)CCCCCCCCC(O)=O,-2.3059,14,36.0,21.245,-0.007630524285,0.01826854285,-0.051899034457,0,5,184.1049787,0,4,14,13.0,0.0,157.71809068859682,372.093,108.540791
F-179,CCSC(CCC(SCC)C(=O)O)C(=O)O,-1.36,16,42.0,8.706,-0.001458123409,0.011257077914,-0.005677334259,0,8,248.2345535,0,4,20,16.0,0.0,214.8068592472929,397.857,153.212252
B-2399,CCCCOC(=O)C(C)OC(=O)C(C)O,-1.3752,15,39.0,2.6460000000000004,-0.00185976328,0.013756791088,0.002635566656,0,6,200.1043836,0,5,19,14.0,0.0,197.21369771433152,395.536,116.328436
F-977,CC(C)C(O)(CCC(C)(O)C(=O)O)C(=O)O,-1.69,16,42.0,4.183,-0.001867790101,0.018234914155,0.000367608444,0,8,216.1037885,0,6,21,14.0,0.0,194.1946168776529,385.094,120.59296299999998
A-5354,CC(=O)OCCOCCOCCOC(C)=O,0.6303241079999999,16,42.0,0.447,-0.002427167148,0.013210728839,-0.0148002251869999,0,8,216.1037885,0,6,20,14.0,0.0,182.9957841236597,411.641,119.42707
G-600,CCN(CC)C(=O)C(=CCOP(=O)(OC)OC)Cl,0.523,15,48.0,406.326,-15.896283709802,0.012355492373,-23.800548104047,0,16,280.5377864,1,3,21,11.0,0.001,622.8862626250009,569.418,634.055476
B-884,CCN(CC)C(=O)/C(Cl)=C(/C)O[P](=O)(OC)OC,0.5233,18,48.0,8.242,-0.006460315274,0.00677806604,-0.024913546098,0,15,280.5377864,1,5,16,14.0,-0.001,231.8508587452904,425.675,161.611828
B-2381,CCN(CC)C(=O)\C(Cl)=C(/C)O[P](=O)(OC)OC,0.5233,17,48.0,33.799,-0.186820958489,0.008709278615,-0.357767718486,0,14,280.5377864,1,4,20,12.0,0.0,180.1071435127431,439.937,163.371568
B-3116,CN(C)C1CCCC=CCC1,-1.6004,11,27.0,5.956,-1.103565e-06,-0.004124992987,-0.008386499311,0,2,134.1140622,1,0,10,8.0,0.0,137.01440383960642,281.969,96.389742
A-906,CC(C)CCCC(C)CC#N,-3.587759138,11,27.0,3.027,-5.532319e-06,-0.006670788193,-0.0148131841669999,0,3,134.1140622,1,0,11,8.0,0.001,152.3198756916794,330.416,97.210321
B-2028,CCO[P](=O)(OCC)SCC(=O)NC(C)(C)C#N,-0.6237,18,48.0,3.052,-0.0064196974399999,0.00501385195,-0.014383418483,0,11,275.15693450000003,2,4,17,14.0,0.0,239.7799781556854,431.294,166.289311
F-408,CCNC(=S)N1CCN(C(=O)OCC)CC1,-1.79,16,42.0,5.285,-0.001826609618,0.002792794906,-0.017915865159,0,8,226.1910659,3,2,11,11.0,0.0,195.34857013527807,391.065,142.176991
F-185,CC(C)CC(NC(=O)CNC(=O)CN)C(=O)O,-0.11,17,45.0,1.156,-0.004613604707,0.010429745171,-0.018782221974,0,8,226.1250883,3,4,20,17.0,0.0,203.99008168387013,450.514,130.89303700000002
B-1971,CC(C)C[C@H](N)C(=O)NCC(=O)NCC(O)=O,0.2124,17,45.0,3.403,-0.003949446368,0.011789962091,-0.0129899106939999,0,9,226.1250883,3,4,24,16.0,0.0,202.3234211236364,430.659,127.802123
B-2398,CCNc1nc(OC)nc(n1)N(CC)CC,-2.9987,16,42.0,11.787,-8.344488999999999e-05,-0.006970107478,-0.033075749011,0,8,206.14028,5,1,13,12.0,0.0,187.5132628796444,388.999,133.764925
D-2035,CCNc1nc(NC(C)CC)nc(OC)n1,-2.575,16,42.0,5.397,-7.5862241e-05,-0.0076038579509999,-0.0288594825119999,0,8,206.14028,5,1,13,10.0,0.0,188.76629194212484,376.45,131.929955
C-1222,COC1=NC(=NC(=N1)NC(C)C)NC(C)C,-2.56,16,42.0,5.908,-3.7815019e-05,-0.008053217168,-0.018172843235,0,6,206.14028,5,1,14,12.0,0.0,202.831066183424,405.133,132.418365
B-4617,CCNc1nc(NC(C)(C)C)nc(OC)n1,-3.2388,16,42.0,9.346,-8.684867899999999e-05,-0.007923424343,-0.031377297688,0,7,206.14028,5,1,14,13.0,0.0,197.8214136490016,396.658,131.929561
A-3712,CC(C)C1=NN(C(=O)NC(C)(C)C)C(=O)N1N,-1.7188473969999998,17,45.0,1.149,-0.001900815779,-0.00010239558,-0.013898367277,0,11,222.1396849,5,2,14,11.0,0.0,206.8850655034276,375.561,133.33003100000002
B-4615,CSc1nc(NC(C)C)nc(NC(C)C)n1,-3.8642,16,42.0,10.215,-0.000307903529,-0.004178652558,-0.018735991008,0,7,222.2056625,5,0,15,12.0,0.0,221.5795415581545,422.73800000000006,146.290658
B-4609,CCNc1nc(NC(C)(C)C)nc(SC)n1,-3.9847,15,42.0,3.999,-0.000238210093,-0.005741186733,-0.012866810529,0,8,222.2056625,5,0,15,15.0,0.0,210.67420709236143,415.332,146.870431
B-1581,O=C1CCCCCCCCCN1,-1.8862,12,30.0,8.075,-0.002602731135,0.001741945577,-0.014943257169,0,2,150.11346709999998,1,1,14,12.0,0.0,138.5428616323381,281.824,101.383343
A-1646,CCCCCCCC(=O)NCC(O)=O,-2.111537593,14,36.0,3.647,-0.002410109547,0.007871363424,-0.012044569491,0,6,182.112277,1,3,13,12.0,0.0,170.55069470365697,388.845,113.752259
B-4193,CCOC(=O)CC(S[P](=S)(OC)OC)C(=O)OCC,-3.3637,18,51.0,12.630999999999998,-0.002939542162,0.008522471568,-0.022328857809,0,15,311.20712530000003,0,5,21,16.0,0.0,256.4510529694653,475.213,184.403163
B-1691,CCOC(=O)CC(S[P](=O)(OC)OC)C(=O)OCC,-1.6223,19,51.0,8.205,-0.003534684987,0.009126957929,-0.015465760583,0,13,295.14174280000003,0,7,22,13.0,0.0,239.22848112305027,434.348,168.95426799999998
B-2031,CCCCCC1CCCC1,-6.0863,10,24.0,1.492,-1.359566e-06,-0.004249004647,-0.008849655539,0,2,120.107359,0,0,4,8.0,0.0,125.82589763327933,296.289,87.836451
G-79,CCCCCCCCC=C,-5.51,10,24.0,0.1,-2.238728e-06,-0.004608619075,-0.012446987697,0,2,120.107359,0,0,0,9.0,0.0,131.58242691745534,321.365,92.455844
A-2100,CC1CCC(CC1)C(C)C,-5.354573108,10,24.0,7.728,-1.386449e-06,-0.003866818459,-0.011500941912,0,2,120.107359,0,0,6,9.0,0.0,133.1752034213188,269.639,89.367389
F-210,CCCCC(=O)NNC(=O)CCCC,-2.16,14,36.0,6.433,-0.000838924603,0.002161708818,-0.013944453004,0,5,180.1195753,2,2,12,12.0,0.0,170.22962825465186,354.31,115.072884
B-1547,CCCC(=O)NCCNC(=O)CCC,-0.6222,14,36.0,3.807,-0.003983114643,0.006165023263,-0.02265240076,0,3,180.1195753,2,2,12,10.0,0.0,167.71607586530698,382.875,115.003559
F-170,CC(C)C(N)C(=O)NC(C(=O)O)C(C)C,-0.4,15,39.0,2.478,-0.000875363946,0.001692922543,-0.007658446578,0,5,196.1189802,2,3,21,14.0,0.0,199.21494005575693,373.533,119.482476
B-120,CCC(C)C(C)(COC(N)=O)COC(N)=O,-2.366,16,42.0,3.054,-0.003764722622,0.009208895046,-0.014442098175,0,8,212.1183851,2,4,14,13.0,0.0,214.2106652589891,395.223,123.457085
B-1770,OCCNC(=O)CCCCC(=O)NCCO,0.4121,16,42.0,0.397,-0.00634454039,0.019280987989,-0.013751618444,0,6,212.1183851,2,4,27,15.0,0.0,177.9811347699823,417.671,122.937467
F-148,NC(CSCCCCSCC(N)C(=O)O)C(=O)O,-3.62,18,48.0,6.212000000000001,-0.0019922445899999,0.009202725404,-0.017773650135,0,8,276.2479599,2,4,30,17.0,0.0,232.72097183459647,509.158,163.78432
A-885,CCN(CC)C(=S)SSC(=S)N(CC)CC,-4.860377549,15,42.0,4.329,-0.000260904451,0.002550252218,-0.009958387635,0,7,276.3799151,1,0,13,11.0,0.0,238.89021643016204,417.288,186.97521
G-991,CCNP(=S)(OC)OC(=CC(=O)OC(C)C)C,-3.408,17,45.0,9.204,-0.0018598005919999,0.007191690219,-0.010596930853,0,10,261.15023130000003,1,4,16,12.0,0.0,235.9978752830056,383.852,159.44100600000002
B-1911,CCOC(=O)N(C)C(=O)CS[P](=S)(OCC)OCC,-2.5177,18,51.0,7.182,-0.0023820570899999,0.007933675176,-0.012196285937,0,11,309.2144236,1,5,20,15.0,0.0,251.0803644711813,459.04,186.111796
A-1197,CC(C)(C)C1CCC(O)CC1,-3.103262125,11,27.0,3.794,-0.001522531659,0.002385311225,-0.006612013601,0,4,136.1067639,0,1,10,7.0,-0.001,138.90892798936835,281.323,91.497455
A-1163,CCCCCCCCCC=O,-3.725525503,11,27.0,5.359,-0.0009119941929999,0.001946096912,-0.008199420489,0,2,136.1067639,0,1,5,9.0,0.0,136.83915842149693,334.664,96.221258
B-3933,CCCCCCCCC(C)=O,-3.3085,11,27.0,6.178999999999999,-0.000243553937,1.9294722e-05,-0.007897366051,0,3,136.1067639,0,1,5,10.0,0.0,139.79450468182534,331.24300000000005,95.917954
A-4709,CC(CCCC(C)(C)O)C=C,-2.221207241,11,27.0,2.632,-0.000129175064,-0.000765571889,-0.009009470672,0,3,136.1067639,0,1,3,8.0,0.0,146.34547781160728,315.004,92.673222
H-392,CC(C)C1C(C)CCCC1O,-0.29,11,27.0,5.1370000000000005,-0.0017188853409999,0.001094343975,-0.013407670406,0,4,136.1067639,0,1,7,8.0,0.0,135.77808735293078,283.051,94.616484
A-652,CC(C)C1CCC(C)CC1O,-2.488009121,11,27.0,4.722,-0.001758621871,0.001418128377,-0.011798596974,0,4,136.1067639,0,1,5,8.0,0.001,142.94327747836172,289.761,94.74127
A-789,CC(C)[C@@H]1CC[C@@H](C)C[C@@H]1O,-2.560404377,11,27.0,7.184,-0.001287317298,0.000759650122,-0.013283693728,0,3,136.1067639,0,1,8,11.0,0.0,140.6009552966353,277.722,93.939329
A-808,CC(C)[C@@H]1CC[C@@H](C)C[C@H]1O,-2.570623543,11,27.0,5.452999999999999,-0.001779502036,0.001045493544,-0.012762854716,0,4,136.1067639,0,1,7,9.0,-0.001,137.0637237458919,280.48,93.298989
A-4876,CC(C)[C@H]1CC[C@@H](C)CC1O,-2.830260853,11,27.0,1.2,-0.00012115819,-0.000783903019,-0.00244533893,0,3,136.1067639,0,1,5,7.0,0.0,137.69530068768805,262.171,93.16949
H-393,CC1CCCC(O)(C(C)C)C1,-0.24,11,27.0,7.213999999999999,-0.000703526148,0.0020345733119999,-0.009594062461,0,3,136.1067639,0,1,4,9.0,0.001,27.69507649113212,327.558,94.814802
H-391,CC(C)C1(C)CCCC(O)C1,-0.6,11,27.0,4.574,-0.002842333306,0.002111565022,-0.018244336134,0,3,136.1067639,0,1,5,6.0,-0.001,142.54362654128178,262.84,92.70338
A-4921,CC(C)CC1CC(C)CCO1,-3.079929481,11,27.0,6.074,-0.00044874004,0.0021229242869999,-0.0068163326,0,3,136.1067639,0,1,6,10.0,0.001,126.27832983424032,320.435,94.259568
A-4867,CC(O)CCC1CCCCC1,-2.767361572,11,27.0,0.7959999999999999,-0.000283432491,0.00057085254,-0.002930185481,0,2,136.1067639,0,1,8,9.0,0.0,132.72342475975887,295.51,93.528597
A-1058,C[C@@H](CCO)CCC=C(C)C,-2.706734458,11,27.0,6.0760000000000005,-0.000449935259,0.002123250976,-0.006796474289,0,3,136.1067639,0,1,6,11.0,0.001,142.82187525020746,320.464,94.258981
A-1280,CC(C)CCCC(C)CC=O,-3.806483007,11,27.0,5.6610000000000005,-0.000450355601,0.002122869444,-0.006686926151,0,3,136.1067639,0,1,6,9.0,0.0,142.83422792972593,320.487,94.258411
A-511,CCCCCCCCCC(O)=O,-3.445216137,12,30.0,16.82,-0.006197171065,0.007162859,-0.0561172446019999,0,4,152.1061688,0,2,5,8.0,0.0,144.6718027664515,349.059,100.39452
G-823,CCCCCCCCC(=O)OC,-3.38,12,30.0,5.875,-0.000667566518,0.00228853998,-0.007053222439,0,4,152.1061688,0,2,6,5.0,0.001,152.58612331573602,373.903,102.248108
B-497,CCCCCCCC(=O)OCC,-3.3907,12,30.0,10.141,-0.002562540101,0.002433211967,-0.0277307106369999,0,4,152.1061688,0,2,6,9.0,0.0,147.96567136856495,351.50300000000004,101.875321
A-1746,CCCCC(CC)C1OCCO1,-3.119596868,12,30.0,2.2,-9.6512462e-05,-0.000629994112,-0.007016611918,0,3,152.1061688,0,2,9,7.0,0.0,143.8230554453217,326.678,101.731234
A-842,CCCCCOC(=O)CCCC,-3.624481304,12,30.0,0.4579999999999999,-0.0006061384189999,0.002837934807,-0.006783915458,0,4,152.1061688,0,2,6,7.0,0.0,153.07650045362308,363.162,102.54298
A-1094,CCCCC(CC)COC(C)=O,-4.645140005,12,30.0,5.132000000000001,-0.00058740072,0.000994523233,-0.013437092056,0,3,152.1061688,0,2,13,13.0,-0.001,150.2689899250095,336.759,101.831643
A-469,CCCCC(CC)C(=O)OCC,-3.423291255,12,30.0,1.624,-0.001489949362,0.001786195085,-0.010787156365,0,3,152.1061688,0,2,9,10.0,0.0,149.51771088198387,347.631,102.794778
A-770,CC(C)C1CCC(C)CC1OO,-2.588821642,12,30.0,4.77,-9.5972656e-05,0.002805716922,-0.005916479904,0,4,152.1061688,0,2,7,7.0,0.0,153.71972263894585,288.753,99.83573
A-724,CC(C)CCOC(=O)CC(C)C,-3.554059535,12,30.0,4.2330000000000005,-0.000512320367,0.002235543157,-0.007656983367,0,4,152.1061688,0,2,6,7.0,-0.001,170.50750156847133,373.977,102.576583
A-2918,CC(C)CC1CC(C)(O)CCO1,2.13768162,12,30.0,7.712000000000001,-0.000387169408,0.0021074202,-0.007035628495,0,4,152.1061688,0,2,9,9.0,0.001,154.80984804255513,306.631,98.094315
D-1405,CC(C)(O)C1CCC(C)(O)CC1,-1.634,12,30.0,9.34,-0.000706896424,0.004442957817,-0.016621906217,0,5,152.1061688,0,2,3,6.0,0.0,152.0295712805945,288.47900000000004,95.322842
A-3806,CC(CCCC(C)(C)O)CC=O,-0.692136567,12,30.0,8.083,-0.000633247705,0.005812590343,-0.008694058051,0,5,152.1061688,0,2,3,9.0,0.0,151.53923772554762,328.705,96.428436
A-865,CCCCC(CC)COC(=O)CS,-4.635481621,13,33.0,16.982,-0.000587241278,0.00427453901,-0.019875933853,0,5,184.1709563,0,2,13,11.0,0.001,177.18663848342445,367.69,121.83798
A-1933,CC(C)CCCCCOC(=O)CS,-4.285036897,13,33.0,18.406,-0.00319566468,0.00625965292,-0.0252226324839999,0,5,184.1709563,0,2,10,11.0,0.0,174.9439508209473,388.105,121.05047
B-2421,CCCCCOC(=O)CCOCC,-2.1956,13,33.0,4.168,-0.00077163822,0.003880962603,-0.012618477431,0,4,168.1055738,0,3,11,9.0,0.0,161.28966896754096,388.835,107.979829
B-737,CCCCOCCOCCOC(C)=O,-0.8188,14,36.0,5.111000000000001,-0.001152884643,0.0063988743059999,-0.015770712967,0,6,184.1049787,0,4,17,14.0,0.0,166.23864368746123,384.299,111.152528
A-4040,CC(C)(CO)COC(=O)C(C)(C)CO,0.068201817,14,36.0,5.306,-0.001749716796,0.010434760341,-0.012030490253,0,7,184.1049787,0,4,13,8.0,0.0,183.1062069885624,341.67400000000004,111.306354
A-2005,CC1(C)CO[P](=S)(OC1)O[P]2(=S)OCC(C)(C)CO2,-5.393383395,18,51.0,5.992999999999999,-0.0057579605189999,0.007932425858,-0.027768725306,0,16,326.18148239999994,0,4,11,8.0,0.0,263.08081969057133,438.584,198.986308
A-3739,CCCCCCCC(=O)N(C)C,-1.600248341,12,30.0,5.3660000000000005,-0.002118702085,0.000939914232,-0.0193678101549999,0,5,150.11346709999998,1,1,4,9.0,-0.001,152.13214096433282,347.11300000000006,102.709771
B-3252,CCC(CC)C(=O)N(CC)CC,-1.0876,12,30.0,5.013999999999999,-0.001009663979,-0.000142637384,-0.017404025829,0,5,150.11346709999998,1,1,9,6.0,0.0,154.67461269240857,303.507,102.97921
A-3385,CNC(=O)C(C)(C(C)C)C(C)C,-1.394867706,12,30.0,2.316,-0.001335035029,0.000441348055,-0.00912914697,0,6,150.11346709999998,1,1,8,9.0,0.0,166.10061896475398,325.047,101.719093
A-2854,CC1(C)CC(O)CC(C)(CN)C1,0.488999371,12,30.0,1.267,-0.002203959614,0.00037232946,-0.017350670634,0,4,150.11346709999998,1,1,7,6.0,-0.001,157.34541499324806,296.82,89.25624499999999
H-514,CCCSC(=O)N(CCC)CCC,-3.3,13,33.0,4.77,-0.001402317527,0.003558293697,-0.012742312541,0,4,182.1782545,1,1,13,12.0,0.0,162.9322444476193,390.258,124.251688
H-570,CCCCN(CC)C(=O)SCCC,-3.41,12,33.0,6.385,-0.000890937731,0.0016758389129999,-0.0137337025649999,0,5,182.1782545,1,1,15,11.0,0.0,173.20612018699336,374.565,125.430947
B-738,CCCCCCCCCC,-6.4372,10,24.0,0.098,-2.238414e-06,-0.004608595361,-0.012445201195,0,2,120.107359,0,0,0,9.0,0.0,131.58125862842832,321.36400000000003,92.455832
B-2466,CCCCC(C)(C)CCC,-4.8108,10,24.0,0.129,-2.329712e-06,-0.004493351414,-0.012342653646,0,3,120.107359,0,0,8,9.0,0.0,143.85625608955968,313.328,92.671575
F-331,CCCCCCCCC(CO[N+](=O)O)O[N+](=O)O,-5.72,18,48.0,14.528,-0.001754414429,0.017935450854,-0.309295204747,0,9,244.1171949,2,6,16,16.0,0.0,201.72120192652253,430.826,129.60000300000002
A-374,CC(C)CCCCCCCO,-3.324378497,11,27.0,7.228,-0.000703305341,0.002034876075,-0.009617853842,0,3,136.1067639,0,1,4,9.0,0.001,139.35674282748852,327.547,94.815089
A-936,CCCCCCCCCCO,-3.631238036,11,27.0,5.351,-0.000913447571,0.001946685879,-0.0082077685369999,0,2,136.1067639,0,1,5,11.0,0.0,136.83489216871038,334.651,96.221026
A-725,CCCCCC(CO)CCC,-3.518198523,11,27.0,1.639,-0.0013252615169999,0.001929706099,-0.01234668402,0,3,136.1067639,0,1,5,10.0,0.0,140.61686911593915,327.678,96.41856
A-1015,CCC(C)(O)CCCC(C)C,-2.694289782,11,27.0,3.194,-0.000128483174,-0.001007634149,-0.0072588493689999,0,4,136.1067639,0,1,4,9.0,0.0,154.35949822967297,322.784,95.160669
A-1181,CCC(C)CCCC(C)(C)O,-2.749344685,11,27.0,1.246,-0.000131585682,-0.000771235816,-0.007837870225,0,5,136.1067639,0,1,1,7.0,0.0,146.1481422763893,315.305,92.644983
A-482,CC(C)CCCC(C)CCO,-3.393259787,11,27.0,7.487,-0.000433385127,0.002022812037,-0.00765595964,0,3,136.1067639,0,1,6,10.0,0.0,148.8815094500863,327.437,95.743425
A-1212,CC(C)CCOCCC(C)C,-3.760107067,11,27.0,3.885,-6.964217e-06,-0.002535491031,-0.012725481685,0,3,136.1067639,0,1,8,11.0,0.0,145.72261714692425,326.714,94.80795
A-584,CCCCCCCCC(O)CO,-2.478578955,12,30.0,7.956,-0.002571295886,0.007294265971,-0.0160209281239999,0,3,152.1061688,0,2,8,11.0,-0.001,144.43529222763448,348.0,100.950387
B-2342,CCCCCCCCOCCO,-2.125,12,30.0,4.94,-0.001536916135,0.003809790032,-0.014835346985,0,3,152.1061688,0,2,8,12.0,0.0,146.07875914782983,353.732,101.384347
B-4051,CCCCOCCOCCCC,-1.9402,12,30.0,0.718,-3.1878e-06,-0.000268943251,-0.01524860523,0,4,152.1061688,0,2,10,13.0,0.0,149.4863007256186,357.13800000000003,102.842957
A-1363,CCCCCCCC(OC)OC,-2.9180054189999995,12,30.0,13.94,-8.0708668e-05,-0.003344817355,-0.0231387004309999,0,4,152.1061688,0,2,6,11.0,0.0,155.76894255482526,377.27,103.911534
A-1747,CCC(C)(C)OOC(C)(C)CC,-4.100435339,12,30.0,1.414,-0.000325437235,0.0011519967789999,-0.007130141531,0,6,152.1061688,0,2,11,10.0,0.0,189.73301780319127,328.25300000000004,101.355261
B-650,CCCCCCOCCOCCO,-1.0490000000000002,13,33.0,8.822000000000001,-0.001764414442,0.006132984857,-0.019114649606,0,4,168.1055738,0,3,15,13.0,0.0,155.17109159275952,372.088,106.513134
A-5464,CCCCOCC(C)OCC(C)O,-0.653059623,13,33.0,21.194000000000003,-0.000267676104,0.0062199663549999,-0.0274653801569999,0,5,168.1055738,0,3,14,13.0,0.0,166.63931415008656,364.901,106.205142
B-832,CCCCOCCOCCOCCO,0.6855,14,36.0,5.581,-0.001838137502,0.008619162913,-0.01636552375,0,5,184.1049787,0,4,19,13.0,0.0,164.3337436331892,388.905,111.537234
B-2582,COCC(C)OCC(C)OCC(C)O,0.6855,14,36.0,4.473,-0.000725095585,0.004399297068,-0.0074118882649999,0,6,184.1049787,0,4,15,14.0,0.001,187.27498425470705,380.944,114.077682
B-2667,COCC(C)OCC(C)OC(C)CO,0.6855,14,36.0,5.313,-0.000559827644,0.004081622662,-0.008787822961,0,6,184.1049787,0,4,16,11.0,0.0,187.19212837027237,382.703,114.220768
A-5256,CCCCCCCCCCO[S]([O-])(=O)=O,0.102988053,15,39.0,8.431000000000001,-0.017027432368,0.0130021156799999,-0.0716574485259999,0,11,216.1697661,0,4,3,10.0,0.0,178.62545301470266,409.236,135.776364
A-5318,COCCOCCOCCOCCOC,0.653097658,15,39.0,2.694,-0.00032494134,0.003571853102,-0.000511953845,0,8,200.1043836,0,5,18,9.0,-0.001,177.27340264245808,410.707,117.708384
B-751,OCC(CO)(CO)COCC(CO)(CO)CO,-1.9582,17,45.0,1.12,-0.003759319725,0.020942035196,-0.013284484252,0,8,232.1031934,0,7,22,12.0,0.0,178.7738093086599,408.497,127.254052
B-3290,CCCCCS[S](=O)CCCCC,-3.1711,13,33.0,4.037,-0.001743978641,0.002333142395,-0.016132999847,0,6,200.2363387,0,1,5,10.0,0.0,179.0799321566077,379.45,137.730558
B-1783,CCCCCCCCCCN,-2.4564,11,27.0,0.626,-6.500835e-06,-0.0067792729729999,-0.016185830084,0,2,134.1140622,1,0,7,10.0,0.0,140.19374675118277,337.76,97.766434