Name,SMILES,Solubility,AtomNum,DegFreedom,Dipole,Ghb,Gsasa,Gsolv,HNum,LP,MolWt,NNum,ONum,PiCenters,PiDeloc,Quadrupole,Volume,SASA,Polarizabilty
B-3906,CCCCOC(=O)c1ccccc1,-3.4801,13,33.0,4.761,-0.001806251358,0.001456204647,-0.009562594636,0,3,164.1169047,0,2,13,10.0,0.001,152.5080814858696,333.71,108.43350900000002
A-1727,CCCC(=O)OCc1ccccc1,-3.117444335,13,33.0,14.067,-0.000157169584,0.0029994371139999,-0.018240198333,0,3,164.1169047,0,2,11,10.0,0.0,154.03135983086054,333.347,109.959915
A-667,COc1ccc(CC=C)cc1OC,-2.55201324,13,33.0,9.003,-5.7165251e-05,-0.004199426717,-0.021021314315,0,3,164.1169047,0,2,8,10.0,0.0,156.35606154133416,339.32,112.159764
A-1148,COc1ccc(\C=C\C)cc1OC,-2.778226795,13,33.0,9.034,-5.7064482e-05,-0.004199285473,-0.021072407275,0,3,164.1169047,0,2,8,10.0,0.001,156.36002137983343,339.356,112.160857
A-4188,CC(=O)COc1c(C)cccc1C,-1.918544784,13,33.0,2.756,-0.001506861598,0.005566391755,-0.004676699057,0,5,164.1169047,0,2,7,8.0,0.001,165.67668369403708,292.499,100.226881
A-4689,COc1ccc(CC(C)C=O)cc1,-2.24666187,13,33.0,9.719,-0.001538332306,0.002417006061,-0.017370274463,0,3,164.1169047,0,2,9,8.0,0.0,155.0508887400584,332.264,109.054742
B-1837,OC(=O)CCCCc1ccccc1,-2.4657,13,33.0,23.038,-0.006351869889,0.007529858826,-0.0607551927379999,0,3,164.1169047,0,2,11,10.0,0.0,149.46449447627325,337.39,107.084189
A-1013,CC(C)(C)OOC(=O)c1ccccc1,-2.776432949,14,36.0,2.905,-0.001654700058,0.0032735205959999,-0.006334375301,0,6,180.1163097,0,3,12,8.0,0.0,170.47377636817745,338.715,111.242504
B-4548,CCCCOC(=O)c1ccc(O)cc1,-2.9723,14,36.0,1.704,-0.003565400996,0.008151576648,-0.011763588697,0,5,180.1163097,0,3,14,15.0,-0.001,159.90165808323738,350.175,110.158395
B-1157,CC(C)c1ccc(C)c(C(O)=O)c1O,-3.2883,14,36.0,12.113,-0.005276225462,0.010738488947,-0.037661915723,0,6,180.1163097,0,3,9,8.0,0.001,170.48294541695762,335.82199999999995,112.823818
E-1240,C1=CC(C2)C(C(=O)OC)C(C(=O)OC)C12,-1.2,15,39.0,2.471,-0.000861364833,0.006073411997,-0.001165414372,0,7,196.1157146,0,4,20,14.0,0.0,178.32350198579357,368.57,109.842395
D-2066,COC(=O)[C@@H]1C2CC(C=C2)[C@@H]1C(=O)OC,-1.202,15,39.0,2.715,-0.000753769283,0.005324500335,-0.001860033971,0,7,196.1157146,0,4,20,14.0,0.0,178.39096996926497,360.723,109.845143
A-1629,CCCS[P](=O)(OCC)Oc1ccc(Br)cc1Cl,-4.365622838,17,48.0,4.256,-0.00975271368,0.0062136355709999,-0.02771671611,0,14,358.5113244,0,3,12,10.0,0.0,243.405274919725,436.875,193.61735
C-331,CCC(C)C1(CC(Br)=C)C(=O)NC(=O)NC1=O,-2.65,17,45.0,20.394,-0.004979657659,0.009152884751,-0.039014683738,0,9,288.0332439,2,3,15,17.0,0.0,222.07075015198677,423.369,149.17880300000002
B-2788,CCCS[P](=S)(OCC)Oc1ccc(Cl)cc1Cl,-6.693,17,48.0,7.731,-0.035311900479,0.011432736488,-0.049899168553,0,14,330.1261167,0,2,11,12.0,0.0,227.09291064294712,419.994,199.517663
B-3058,CCO[P](=S)(OCC)Oc1cc(Cl)c(Cl)c(SC)c1,-6.0807,16,51.0,19.361,-0.002426288391,0.006771294165,-0.044433059078,0,18,346.1255216,0,3,12,9.0,0.0,263.7237851543656,484.309,205.911647
A-772,CC(C)COC(=O)c1cc(N)c(Cl)c(N)c1,-2.738284824,15,42.0,5.29,-0.001988312396,-0.000297326553,-0.023095479193,0,9,227.5832487,2,2,12,11.0,-0.001,201.386369328202,400.633,136.281954
B-3472,CCN(Cc1ccc(Cl)nc1)\C(NC)=C\[N+]([O-])=O,0.4918,18,48.0,18.523,-0.006870044272,0.007519482119,-0.052491378533,0,8,255.5966552,4,2,20,14.0,0.0,211.51677368475367,434.953,153.42134199999998
C-1267,CCCCCCOC(=O)N1C=C(F)C(=O)NC1=O,-2.24,18,48.0,6.648,-0.003178369096,0.012043857661,-0.0106657342479999,0,11,243.1275242,2,4,20,12.0,-0.001,199.47399235974527,420.554,136.590751
C-1918,CCCCCC(=O)OCN1C(=O)NC=C(F)C1=O,-2.11,18,48.0,1.19,-0.00413513742,0.014899423027,-0.011286599578,0,11,243.1275242,2,4,21,15.0,0.0,189.41823636663412,440.847,136.145599
E-888,CNC(=O)Oc1cccc(N=CN(C)C)c1,-2.34,16,42.0,1.259,-0.001520335577,-0.000400947037,-0.011570127699,0,5,206.1370144,3,2,17,11.0,-0.001,192.8769329815996,390.566,130.092218
F-896,CCCN(C)N=NC1=CC=C(C(=O)O)C=C1,-1.43,16,42.0,14.203,-0.004786523412,0.004714361792,-0.049679524704,0,4,206.1370144,3,2,19,16.0,0.0,189.52081243983665,393.741,130.005456
B-2160,OC(=O)CCC(N(CCC#N)CCC#N)C(O)=O,-0.2275,18,48.0,4.215,-0.003373223681,0.005864334847,-0.033849170833,0,8,238.1358242,3,4,24,12.0,0.001,207.9101116479248,436.93,138.258952
B-1738,Nc1ncnc2n(cnc12)[C@]3(CO)O[C@H](CO)[C@@H](O)[C@H]3O,-1.5701,21,57.0,8.218,-0.0043756493589999,0.0126195292259999,-0.033584129179,0,12,282.1486355,5,5,17,14.0,0.0,225.6976132497555,401.609,154.852191
B-2904,CCCCCOC(=O)c1cccnc1,-2.3776,14,36.0,5.252000000000001,-0.001876651932,0.0001998347439999,-0.01289973694,0,5,178.12360800000002,1,2,8,10.0,0.0,162.96696652973992,355.595,115.314221
F-22,CCCCOC(=O)C1=CC=C(N)C=C1,-3.06,14,36.0,2.312,-0.002042067711,-0.000598078715,-0.015914283311,0,5,178.12360800000002,1,2,12,11.0,-0.001,163.52098922983984,352.598,115.574127
A-3018,CCOC(=O)N(CC)c1ccccc1,0.8673994759999999,14,36.0,7.54,-0.001695942199,0.0004230897879999,-0.021099540233,0,5,178.12360800000002,1,2,12,11.0,0.0,165.54721191097892,327.092,117.520981
B-2584,CCCOc1ccc(NC(C)=O)cc1,-3.0557,14,36.0,2.651,-0.000253952157,0.001025193452,-0.007475553908,0,4,178.12360800000002,1,2,12,12.0,0.0,165.37707373534002,351.17,116.316182
B-2888,CCOc1ccc(NC(C)=O)c(C)c1,-1.839,14,36.0,3.2260000000000004,-0.0002182799789999,0.0014750858749999,-0.004241547621,0,6,178.12360800000002,1,2,14,11.0,0.0,167.45833568534624,342.598,115.541618
B-2372,CNC(=O)Oc1cc(C)cc(C)c1C,-1.9851,14,36.0,4.02,-0.001206903826,0.000378902566,-0.011045125339,0,6,178.12360800000002,1,2,9,12.0,0.0,174.68241966279712,331.565,115.937292
B-373,CC(C)COC(=O)c1ccc(N)cc1,-2.9437,14,36.0,3.0010000000000003,-0.00201285216,-0.000274802817,-0.017195584085,0,5,178.12360800000002,1,2,16,11.0,0.0,173.11758227828273,354.07,110.096794
B-114,CNC(=O)Oc1cccc(c1)C(C)C,-3.3567,14,36.0,2.021,-0.0014936022839999,0.001285768741,-0.007725134784,0,6,178.12360800000002,1,2,9,8.0,0.0,166.31114217380355,344.62300000000005,114.672659
B-4230,CNC(=O)Oc1ccccc1C(C)C,-2.6841,14,36.0,4.966,-0.00135298768,0.000111158806,-0.008309217038,0,6,178.12360800000002,1,2,10,9.0,0.001,166.14533151039913,330.15,115.651096
B-2727,CCSCc1ccccc1OC(=O)NC,-2.0927,15,39.0,6.81,-0.001719406342,0.00231546284,-0.013034775863,0,6,210.1883954,1,2,16,11.0,0.0,184.05925116840004,353.17400000000004,137.42411
B-1787,CNC(=O)Oc1cc(C)c(SC)c(C)c1,-3.9214,14,39.0,4.843,-0.001371408707,0.004245239358,-0.008575122856,0,8,210.1883954,1,2,10,11.0,0.0,189.977919763102,372.549,135.14532
B-2116,O=[S](=O)(N1CCCCC1)c2ccccc2,-2.5365,15,39.0,2.198,-0.0069663388489999,0.00502999348,-0.0252210765139999,0,5,210.1883954,1,2,10,11.0,0.001,173.50054001000984,337.785,135.454161
B-4,CCC(O)(COC(N)=O)c1ccccc1,-0.9227,15,39.0,6.268,-0.001788210525,0.006005275176,-0.008596168655,0,5,194.1230129,1,3,15,13.0,-0.001,182.6820451398914,355.543,120.269307
F-801,CCCC1=CC(=O)N(CCC(=O)O)C=C1,-2.11,15,39.0,24.03,-0.007561352103,0.0128990513079999,-0.081854649552,0,6,194.1230129,1,3,17,12.0,-0.001,153.85726325547074,398.895,120.719972
B-2073,CCOC(=O)c1[nH]c(C=O)c(CC)c1C,-2.7186,15,39.0,6.928,-0.000177968775,0.004447922108,-0.008858279763,0,7,194.1230129,1,3,10,9.0,0.001,172.5346444372797,353.816,121.698712
B-656,CNC(=O)Oc1ccccc1OC(C)C,-2.0512,15,39.0,4.137,-0.0014426946419999,0.001699145215,-0.007516497719,0,7,194.1230129,1,3,11,11.0,0.0,174.98550122774282,353.98900000000003,120.675337
F-802,O=C(O)CCCCCN1C=CC=CC1=O,-0.64,15,39.0,35.015,-0.008991254604,0.012947417946,-0.0994823932369999,0,5,194.1230129,1,3,13,12.0,0.0,142.95452447993998,406.326,120.292242
F-604,CC(C(=O)N(C)C)S(=O)(=O)C1=CC=CC=C1,-0.87,16,42.0,3.188,-0.008919860422,0.011205690073,-0.028801366491,0,8,226.1878003,1,3,13,11.0,0.001,197.931021218805,389.73800000000006,140.460193
B-1092,COc1ccccc1OCC(O)COC(N)=O,-1.5251,17,45.0,17.204,-0.002633455401,0.002628377977,-0.0502723609879999,0,12,226.1218227,1,5,11,9.0,0.0,196.1512303874932,369.449,130.102087
G-1107,CC(C)(C)Cc1ccccc1,-4.15,11,27.0,2.978,-8.407940000000001e-07,-0.004200185561,-0.007098388381,0,2,132.1180949,0,0,7,7.0,0.0,144.42722025923314,292.885,95.374224
B-3618,CCCCCc1ccccc1,-4.6434,11,27.0,0.236,-1.177105e-06,-0.004425744754,-0.009264562821,0,1,132.1180949,0,0,5,9.0,0.0,136.8770901236802,308.613,99.137511
A-867,CCC(C)(C)c1ccccc1,-4.50074592,11,27.0,1.832,-6.9087e-07,-0.0040903172499999,-0.00569365897,0,2,132.1180949,0,0,7,7.0,0.001,144.21420729637953,285.224,94.749879
B-3623,Cc1cc(C)c(C)c(C)c1C,-3.9807,11,27.0,2.8160000000000003,-9.01542e-07,-0.003921822139,-0.006664079337,0,3,132.1180949,0,0,7,9.0,0.0,144.13923089007938,273.474,93.5493
A-58,Cc1ccc(cc1)C(C)(C)C,-4.472021768,11,27.0,6.621,-1.011844e-06,-0.004028171392,-0.009487588316,0,2,132.1180949,0,0,7,9.0,0.0,149.7099427228673,280.89,95.562876
H-530,CCOP(=S)(OCC)SCSC1=CC=C(Cl)C=C1,-6.05,16,48.0,6.571000000000001,-0.001119801643,0.006196683641,-0.012365074063,0,12,326.7379665,0,2,9,10.0,0.0,259.76712493974577,412.1880000000001,205.969264
B-3077,CCCCN(C(N)=O)c1ccccc1,-1.2971,14,36.0,7.707999999999999,-0.000763892225,0.00069639659,-0.007166012038,0,3,176.1309062,2,1,13,12.0,0.001,171.22342627942734,346.541,118.428242
F-647,CCOC1=CC=C(N(CC)C(N)=O)C=C1,-1.85,15,39.0,1.658,-0.000764489008,0.0025050746899999,-0.006101773732,0,3,192.1303112,2,2,12,14.0,-0.001,181.8754108657856,363.05300000000005,124.502171
B-1786,CNC(=O)Oc1ccc(N(C)C)c(C)c1,-2.3572,15,39.0,4.96,-0.001321689062,0.0007555438049999,-0.010848992471,0,7,192.1303112,2,2,10,11.0,0.0,178.7783044846826,357.332,122.37574
C-1655,CCCCC1(CC=C)C(=O)NC(=O)NC1=O,-2.17,16,42.0,2.975,-0.002655366813,0.008706045357,-0.0100040351599999,0,6,208.1297161,2,3,13,16.0,0.0,181.94059550939525,388.695,127.877679
C-178,CCC1(CC=C(C)C)C(=O)NC(=O)NC1=O,-2.25,16,42.0,2.492,-0.002123307968,0.00636843802,-0.008245805914,0,6,208.1297161,2,3,17,18.0,0.0,201.0694910189683,398.716,129.914866
B-217,CC(C)CC1(CC=C)C(=O)NC(=O)NC1=O,-2.1193,16,42.0,2.1590000000000003,-0.001933058419,0.004269876046,-0.010389084598,0,6,208.1297161,2,3,18,19.0,0.0,198.42761492348785,395.229,129.911574
C-197,CCC(C)C1(CC=C)C(=O)NC(=O)NC1=O,-2.02,16,42.0,2.414,-0.00243680444,0.008102810884,-0.009873470644,0,7,208.1297161,2,3,15,13.0,0.001,196.9488989569168,376.7480000000001,126.417727
F-1102,C=CC1(C(C)CCC)C(=O)NC(=O)NC1=O,-2.36,16,42.0,0.581,-0.002093859428,0.006188598456,-0.007844382875,0,7,208.1297161,2,3,16,13.0,0.0,193.3636130563568,388.399,129.307511
F-374,CCC=C(C)C1(CC)C(=O)NC(=O)NC1=O,-2.31,16,42.0,1.063,-0.002112632365,0.006470169603,-0.0073396403099999,0,7,208.1297161,2,3,16,12.0,0.0,195.7535821588908,388.502,129.295195
C-194,CC/C=C(C)/C1(CC)C(=O)NC(=O)NC1=O,-2.31,16,42.0,0.679,-0.00218367044,0.006719601594,-0.007481386869,0,7,208.1297161,2,3,16,15.0,0.0,193.5880850665224,387.866,129.29756899999998
C-191,O=C1NC(=O)C2(CCCCCCC2)C(=O)N1,-2.98,16,42.0,18.938,-0.005682695881,0.010391989919,-0.055248505277,0,4,208.1297161,2,3,18,15.0,0.0,170.82587353814242,330.772,123.171327
E-1241,c1ccccc1S(=O)(=O)NC(=O)NCCCC,-3.05,17,45.0,3.2960000000000003,-0.009057277018,0.0076250883109999,-0.027967414945,0,9,240.1945035,2,3,13,12.0,-0.001,197.1861460977997,401.327,148.315016
C-1316,CN(C)[S](=O)(=O)C1=CC=C(C=C1)N(C)C(C)=O,-2.3,17,45.0,11.511,-0.0049582437229999,0.0072052812289999,-0.032260383045,0,6,240.1945035,2,3,19,16.0,0.0,221.4126656713261,405.335,149.681117
F-915,CC(C)CNCC1=CC2=C(OC(S(N)(=O)=O)=C2)S1,-1.33,17,48.0,12.657,-0.009999678597,0.009360492338,-0.048848074336,0,9,272.2592909,1,3,10,14.0,0.0,231.2829983252361,462.984,169.317172
C-1124,COC(=O)C(CC=C)(CC=C)C(=O)NC(N)=O,-2.17,17,45.0,5.166,-0.002348330495,0.011395175223,-0.011489616601,0,8,224.129121,2,4,18,11.0,0.0,214.9215127847553,392.126,135.13406899999998
F-916,CCOCCNCC1=CC2=C(OC(S(N)(=O)=O)=C2)S1,-0.92,19,51.0,6.386,-0.008769371442,0.012500275194,-0.026241251088,0,9,288.2586958,2,4,13,14.0,0.0,222.97884892985903,449.36300000000006,171.337154
B-1624,CCCCN1C(=O)N(C)c2ncn(C)c2C1=O,-1.6252,17,45.0,5.039,-0.002337010074,0.0027555232069999,-0.02291546812,0,7,220.1437176,4,2,17,12.0,0.0,195.2459056101952,393.394,139.677133
B-1583,CCCCn1cnc2N(C)C(=O)N(C)C(=O)c12,-1.8069,17,45.0,3.522,-0.001500514042,0.003181013547,-0.0145815136,0,7,220.1437176,4,2,15,11.0,0.0,189.1844880862866,379.128,138.579165
B-2574,CCCCCN(N=Cc1oc(cc1)[N+]([O-])=O)C(N)=O,-2.8971,19,51.0,4.005,-0.004653423919,0.010150073355,-0.0250644948,0,8,252.14252740000003,4,4,17,15.0,0.0,215.03730067403325,438.085,147.092379
C-2125,CC(CN1CC(=O)NC(=O)C1)N2CC(=O)NC(=O)C2,-1.27,19,51.0,0.436,-0.0055355448829999,0.0181002302689999,-0.0193831043139999,0,9,252.14252740000003,4,4,21,15.0,0.0,204.19623500714832,405.673,143.27743600000002
A-752,CC(C)(O)CCc1ccccc1,-1.5556396769999998,12,30.0,2.6630000000000003,-0.0004112782039999,-0.000463126492,-0.004177087884,0,2,148.11749980000002,0,1,9,9.0,-0.001,148.7922244392311,311.396,100.045662
A-4624,CC(C)(CO)Cc1ccccc1,-2.042313822,12,30.0,4.599,-0.000176721558,0.002311975838,-0.00777413017,0,2,148.11749980000002,0,1,10,12.0,0.0,150.31509082418336,300.183,100.334267
A-4629,CC\C=C/CC1=C(C)CCC1=O,-2.045238375,12,30.0,2.633,-0.002137671986,0.001234300344,-0.014614290255,0,4,148.11749980000002,0,1,3,8.0,0.0,145.57715268083953,322.129,102.860199
B-265,CCC(C)(C)c1ccc(O)cc1,-2.9902,12,30.0,2.752,-0.0015753913579999,0.002059279431,-0.010210422511,0,4,148.11749980000002,0,1,11,9.0,0.0,154.93965820548945,304.612,101.454013
A-4779,CCC(C)(C)c1ccccc1O,-2.49122422,12,30.0,5.401,-3.2793152e-05,-0.0021390922889999,-0.005821090742,0,3,148.11749980000002,0,1,7,9.0,0.001,156.66748386357,286.345,103.705309
A-973,Cc1ccc(c(O)c1)C(C)(C)C,-2.672674663,12,30.0,3.989,-0.001347957029,0.0005353172039999,-0.009991619731,0,4,148.11749980000002,0,1,9,9.0,0.0,156.89929686920684,292.012,101.701723
A-994,CC(O)C(C)Cc1ccccc1,-1.69697299,12,30.0,2.476,-0.000683299333,0.002288836659,-0.0040011963939999,0,1,148.11749980000002,0,1,9,9.0,0.0,154.0623203747457,309.796,102.319659
A-492,O=CC1CCC2C3CCC(C3)C12,-2.419967647,12,30.0,4.777,-0.000227581421,0.002620611661,-0.002374346405,0,2,148.11749980000002,0,1,9,10.0,0.0,133.59227783681783,283.337,91.464934
A-1351,COc1ccc(O)c(c1)C(C)(C)C,-2.927488442,13,33.0,8.642999999999999,-0.000231912271,-0.001195646837,-0.021247387112,0,3,164.1169047,0,2,10,11.0,0.0,164.83376198461735,317.324,110.44635900000002
B-1096,CCCCCc1ccc(O)cc1O,-1.9548,13,33.0,4.589,-0.003710022191,0.0077015515229999,-0.017213742155,0,4,164.1169047,0,2,8,8.0,-0.001,150.83854953715544,336.63,106.072006
B-2564,CCC(C)(O)C(O)c1ccccc1,-1.7244,13,33.0,8.529,-0.0015548423929999,0.00542808315,-0.011530855858,0,3,164.1169047,0,2,11,10.0,0.0,155.79480410411685,302.238,106.29553
F-652,COC1=CC=CC(OCC(O)CO)=C1OC,-3.0,16,42.0,3.439,-0.00080037026,0.006002050158,-0.00826553757,0,7,212.1151195,0,5,13,11.0,0.0,180.5492833068734,358.039,124.949752
A-811,CC/C(C)=C/CC/C(C)=C/C#N,-3.589641142,12,30.0,3.095,-5.699119e-06,-0.006896531585,-0.015216201195,0,4,146.1247981,1,0,7,9.0,0.0,158.27439440255077,346.184,105.635103
B-2161,CSCCC(N(CCC#N)CCC#N)C(O)=O,-1.3279,17,45.0,1.044,-0.000759132607,0.0004634657639999,-0.019246838947,0,7,238.20180180000003,3,2,23,11.0,0.0,218.0481108439677,446.513,148.923945
B-1043,CCC1(N2CCCCC2)C(=O)NC(=O)NC1=O,-2.1562,17,45.0,8.834,-0.0030650448119999,0.00786292638,-0.020799332033,0,5,222.1364193,3,3,19,16.0,0.0,190.5322998003025,356.265,134.502116
B-4496,CCCCNC(=O)N[S](=O)(=O)c1ccc(N)cc1,-2.1782,18,48.0,10.838,-0.00815537104,0.006476908499,-0.049436924623,0,9,254.2012067,3,3,12,15.0,0.001,211.610296900715,382.9,153.653741
B-2741,CN(CCO)c1nc2N(C)C(=O)N(C)C(=O)c2n1C,-0.6488,19,51.0,26.325,-0.005057054438,0.0101986355969999,-0.068512622609,0,8,250.1498257,5,3,20,12.0,-0.001,233.5266765628881,407.11300000000006,147.681793
B-715,CN(C)C(=O)OC1=CC(=O)CC(C)(C)C1,-0.8477,15,39.0,4.917,-0.002247988941,0.0065506074349999,-0.016162882905,0,7,194.1230129,1,3,11,11.0,0.001,184.82794628482185,348.129,119.56042
B-3506,N[S](=O)(=O)c1ccc(CCCCCO)cc1,-1.9712,16,42.0,1.999,-0.0103400645999999,0.012457052356,-0.0284529215329999,0,6,226.1878003,1,3,13,13.0,0.0,189.94726569623865,394.361,141.5206
B-3421,N[S](=O)(=O)c1ccc(SCCCCCO)cc1,-2.6618,17,45.0,17.61,-0.009548889046,0.014362110878,-0.029950792269,0,9,258.2525877,1,3,12,13.0,-0.001,210.88753706947028,416.852,159.10967
B-2387,CCO[P](=O)(OCC)SCc1ccccc1,-2.4155,16,42.0,13.253,-0.002670256501,0.006539483809,-0.021336747722,0,7,243.1548591,0,3,15,10.0,0.0,209.3953751777213,382.403,157.242594
E-892,CCOP(=S)(OCC)Oc1ccc(cc1)S(C)=O,-2.3,17,48.0,11.477,-0.006484724807,0.009752558442,-0.02824215853,0,13,291.2190514,0,4,12,14.0,0.0,243.5737401620661,434.591,182.863704
C-1430,CCO[P](=S)(OCC)OC1=CC=C(C=C1)[S](C)(=O)=O,-3.58,19,51.0,6.276,-0.009893119717,0.0117549974909999,-0.032170215276,0,16,307.2184563,0,5,10,8.0,0.0,246.7544931414827,431.088,186.840519
C-1677,CCCCCC1(CC)C(=O)NC(=S)NC1=O,-3.71,15,42.0,5.849,-0.002966292741,0.00889736386,-0.011752835173,0,6,224.1950986,1,2,15,14.0,-0.001,206.2582460954073,417.444,143.04496899999998
C-163,CCCCCC1(CC)C(=O)NC(=O)NC1=O,-2.51,16,42.0,2.299,-0.002056151164,0.005591041349,-0.0091115578189999,0,6,208.1297161,2,3,18,15.0,0.0,191.5475714502296,397.91,129.912373
B-4593,CCC1(CCC(C)C)C(=O)NC(=O)NC1=O,-2.5743,16,42.0,14.073,-0.005069198786,0.010055258477,-0.032318469213,0,5,208.1297161,2,3,14,15.0,0.0,203.4746417169643,385.316,127.235726
F-1148,CCCC(C)C1(CC)C(=O)NC(=O)NC1=O,-2.39,16,42.0,0.416,-0.002180152492,0.0069570812219999,-0.007008515071,0,7,208.1297161,2,3,16,13.0,0.0,195.79688526073767,388.801,129.292109
F-1145,O=C(O)CCCC1CCCC2NC(=O)NC12,-0.96,16,42.0,12.188,-0.0041725214059999,0.011226014055,-0.028553694774,0,7,208.1297161,2,3,13,12.0,0.001,169.7133534239407,357.356,125.433658
F-471,CCCCCC1(CCO)C(=O)NC(=S)NC1=O,-2.38,16,45.0,4.431,-0.001618792628,0.0116404823879999,-0.001023899917,0,6,240.1945035,1,3,19,17.0,0.001,210.74615193414692,439.767,148.623328
F-470,CC(C)CCC1(CCO)C(=O)NC(=S)NC1=O,-2.56,16,45.0,2.781,-0.0015371971239999,0.012181599358,-0.000466171861,0,6,240.1945035,1,3,20,17.0,0.0,219.34164214071416,406.576,148.641618
C-1183,CCC(CC)(C(=O)NC(N)=O)C(=O)OCC(=O)OC,-2.01,19,51.0,7.83,-0.002511595765,0.009517518055,-0.022524186826,0,13,256.1279308,2,6,21,14.0,0.0,221.34958539951347,425.867,141.615672
A-1870,OC(=O)CN(CCCN(CC(O)=O)CC(O)=O)CC(O)=O,-1.469072537,21,57.0,18.625,-0.0101611528,0.027119023898,-0.068762875377,0,13,288.1267407,2,8,28,19.0,0.0,204.60963053126855,468.446,149.452271
B-2626,CN(C)C(=O)Oc1nc(nc(C)c1C)N(C)C,-1.9457,17,45.0,4.092,-0.001158119551,-0.0002811722269999,-0.0094973278,0,8,220.1437176,4,2,15,11.0,0.0,207.66614847938612,385.533,135.323324
A-86,CC1(C)[C@H]2CC=C(CCO)[C@@H]1C2,-2.695999804,12,30.0,8.404,-0.001722328581,0.002278194991,-0.017855005316,0,2,148.11749980000002,0,1,8,11.0,0.001,151.4679516617681,313.85200000000003,103.737701
A-311,CC/C(C)=C/CCC(C)(O)C#C,-2.302767888,12,30.0,4.841,-8.3769629e-05,-0.000942089295,-0.009487173165,0,3,148.11749980000002,0,1,7,11.0,0.0,157.71940054904326,344.051,103.557786
A-750,CC1C(CC2CC1C2(C)C)C=O,-3.558040393,12,30.0,3.214,-0.001499799186,0.0022819757949999,-0.011901097938,0,4,148.11749980000002,0,1,8,7.0,0.0,153.77030654668454,294.131,98.362167
A-1022,CC(C)=CCC\C(C)=C\COC=O,-3.746150762,13,33.0,21.218000000000004,-0.00042560758,0.002705888214,-0.037745000095,0,3,164.1169047,0,2,10,9.0,0.0,169.28102526528082,370.387,110.402799
B-2585,CC1(C)C2CCC1(C)C(=O)C2CO,-0.215,13,33.0,4.582,-0.001602446484,0.007211089592,-0.010843978975,0,6,164.1169047,0,2,9,8.0,0.001,161.74884821272352,322.021,105.171288
A-5404,CC(C)=CCCC(C)(OC=O)C=C,-4.0405904260000005,13,33.0,3.511,-0.0007602458809999,0.002201411223,-0.008372653494,0,5,164.1169047,0,2,7,12.0,-0.001,177.2356060536087,355.379,110.969066
A-1874,CC1C=C(C)CCC1COC(C)=O,-3.250398558,13,33.0,7.485,-0.002168557513,0.003933146868,-0.0148320246779999,0,3,164.1169047,0,2,13,11.0,-0.001,167.3009563616857,325.668,108.287454
A-4878,COC(=O)C1C(=CCCC1(C)C)C,-2.908515996,13,33.0,3.4560000000000004,-0.000115784153,0.001409976112,-0.007921651381,0,5,164.1169047,0,2,10,9.0,0.001,170.83474222916732,335.389,110.239958