Name,SMILES,Solubility,AtomNum,DegFreedom,Dipole,Ghb,Gsasa,Gsolv,HNum,LP,MolWt,NNum,ONum,PiCenters,PiDeloc,Quadrupole,Volume,SASA,Polarizabilty
A-5188,o1c(cnc1c2ccccc2)c3ccccc3,-5.5532102960000005,17,45.0,1.012,-0.0001135209449999,-0.004711227658,-0.006993819476,0,2,210.1671466,1,1,10,12.0,0.0,189.71492850447967,371.755,143.29865
D-1081,CNc1cccc2C(=O)c3ccccc3C(=O)c12,-6.3,18,48.0,2.29,-0.002165423227,0.0026760432539999,-0.015624795532,0,6,226.1665516,1,2,11,11.0,0.001,194.9328303214164,355.954,150.474577
B-279,Cc1ccc2C(=O)c3ccccc3C(=O)c2c1N,-5.8541,18,48.0,2.496,-0.002325211904,0.001996326793,-0.017550546785,0,5,226.1665516,1,2,10,14.0,0.0,196.36669797669788,343.97,148.772056
E-66,c(c(c(c(c1ccc2)c2)C)ccc3)(c3)c1,-5.89,15,39.0,0.983,-3.73904e-07,-0.00447918945,-0.0047482999449999,0,1,180.1610385,0,0,8,11.0,0.0,172.76874995901662,312.34,130.30216399999998
B-1329,Cc1cccc2cc3ccccc3cc12,-5.8541,15,39.0,4.508,-7.564719999999999e-07,-0.004905069664,-0.0059807365949999,0,1,180.1610385,0,0,6,10.0,0.0,172.4260536311104,342.037,134.462286
B-3591,Cc1cccc2c1ccc3ccccc23,-5.8541,15,39.0,5.098,-1.382517e-06,-0.004582874531,-0.006895840927,0,2,180.1610385,0,0,6,9.0,0.0,173.26719972412153,319.57,130.708434
B-3593,Cc1ccc2c(ccc3ccccc23)c1,-5.8367,15,39.0,4.277,-7.717829999999999e-07,-0.004550998136,-0.005758618191,0,1,180.1610385,0,0,6,11.0,0.0,172.53142496693505,317.347,133.16481000000002
A-2032,CC(C)(c1cc(Br)c(O)c(Br)c1)c2cc(Br)c(O)c(Br)c2,-5.694106411,18,57.0,3.766,-0.002654157928,0.003126418987,-0.02853025173,0,16,531.7739594999999,0,2,10,12.0,0.0,284.08389285551056,523.873,228.895243
B-3546,CC(C)OC(=O)c1cc(c(F)cc1Cl)c2nn(C)c(c2Br)C(F)(F)F,-6.9227,23,69.0,5.791,-0.0011424664659999,0.006905179394,-0.0194775216589999,0,25,431.5233328,2,2,11,10.0,-0.001,284.22282227271563,482.607,206.685883
C-1322,CC1(C)C(C=C(Cl)Cl)C1C(=O)OCC2=C(F)C(=CC(=C2F)F)F,-6.81,23,63.0,19.672,-0.001343139164,0.010421767735,-0.030544013076,0,22,359.0593361,0,2,8,10.0,0.0,270.04963962146047,508.412,187.003763
B-3461,CC1(C)[C@H](C=C(Cl)Cl)[C@H]1C(=O)OCc2c(F)c(F)cc(F)c2F,-6.8137,23,63.0,18.379,-0.001203705722,0.010196863794,-0.025460604259,0,22,359.0593361,0,2,9,13.0,-0.001,263.87312747452853,499.327,185.618003
A-2113,COC(=O)c1ccc(NC(=O)c2cc(Cl)ccc2Cl)cc1N,-5.790064986,20,60.0,9.545,-0.002208964619,0.0068280941799999,-0.02253408204,0,12,327.0785348,2,3,14,13.0,0.0,265.7190549590477,513.055,189.408637
B-379,Clc1ccc(OCCOC(=O)c2ccccc2)c(Cl)c1,-3.8118,19,54.0,13.585,-0.001316024963,0.003152610078,-0.026795356312,0,11,299.0651284,0,3,10,14.0,0.0,238.10087795869808,443.975,176.981765
C-2279,CC(OC1=CC=C(OC2=C(Cl)C=C(Cl)C=C2)C=C1)C(O)=O,-5.04,19,57.0,6.855,-0.000948493712,0.0096079184739999,-0.001999602007,0,11,315.0645333,0,4,14,15.0,0.0,254.2501179581436,462.599,183.522878
A-1096,CCN1C(=O)C(=N/Nc2ccc(Cl)cc2[N+]([O-])=O)/C(=C(C#N)C1=O)C,-4.96733793,24,69.0,19.52,-0.004958072867,0.007153119655,-0.048869477497,0,12,349.64511180000005,5,4,20,20.0,0.0,277.566616132241,494.455,201.029916
C-998,CCN1C(=C(N=NC2=C(C=C(Cl)C=C2)[N+]([O-])=O)C(=C(C#N)C1=O)C)O,-6.69,24,69.0,17.061,-0.0072318810919999,0.012498931501,-0.056057591615,0,13,349.64511180000005,5,4,17,12.0,0.0,279.5096555071996,489.84,197.914579
C-2282,CC(C(O)=O)C1=CC2=C(C=C1)C3=C([NH]2)C=CC(=C3)Cl,-4.7,19,51.0,8.77,-0.000834261227,0.003300050655,-0.00950196431,0,5,261.6194891,1,2,19,14.0,0.0,225.2547410953692,412.891,166.981709
B-3424,C\C(=N/NC(=O)Nc1cc(F)cc(F)c1)c2ncccc2C(O)=O,-3.7248,24,66.0,11.443,-0.003473379393,0.0073834670099999,-0.0438541846079999,0,13,322.1828724,4,3,16,20.0,0.0,255.81459630312787,413.916,179.914365
A-2535,C[C@@H](Oc1ccc(Oc2ccc(cn2)C(F)(F)F)cc1)C(O)=O,-2.6227956690000003,23,63.0,4.808,-0.001315635062,0.0154993581749999,-0.000542444718,0,14,315.1605709,1,4,15,16.0,0.0,249.32816775754085,447.611,170.80222
E-948,NC(Cc2cc(I)c(Oc1ccc(O)c(I)c1)c(I)c2)C(O)=O,-5.22,21,63.0,2.237,-0.0034609263179999,-0.000618266791,-0.038596366458,0,14,638.8787771000001,1,4,16,14.0,-0.001,239.4502481835621,547.78,257.520941
C-753,NC(=O)N1C2=C(C=CC=C2)C=CC3=C1C=CC=C3,-3.29,18,48.0,5.105,-0.001153149066,6.132726700000001e-05,-0.004772175226,0,1,224.17384980000003,2,1,19,17.0,0.0,182.00113304343785,396.418,153.421118
E-1280,O=C1NC(=O)C(N1)(c2ccccc2)c3ccccc3,-3.99,19,51.0,7.357,-0.00295837719,0.005876896348,-0.010107126323,0,3,240.1732548,2,2,17,15.0,0.0,212.81010042180768,376.354,156.60078
D-1084,COc1cc(N)c2C(=O)c3ccccc3C(=O)c2c1N,-5.746,20,54.0,14.145,-0.003262646928,-7.8178449e-05,-0.066919008896,0,6,256.1726597,2,3,13,14.0,0.0,220.8504948047256,397.004,162.632402
C-925,CC1=C(N=C2C=C(O)C(=O)C3=C2C=CC=C3)C(=NO1)C,-3.89,20,54.0,4.547,-0.002378161075,0.006637427639,-0.014594654484,0,8,256.1726597,2,3,10,13.0,-0.001,217.67474519162317,381.044,161.922847
A-5090,O=C(CC(=O)c1ccccc1)c2ccccc2,-5.6579029620000005,17,45.0,5.352,-0.0029795348989999,0.006583888487,-0.010277109634,0,4,212.1598483,0,2,10,12.0,0.0,195.41979555062528,354.783,138.151842
B-1316,COC(=O)c1ccccc1C(=O)c2ccccc2,-3.4776,18,48.0,2.166,-0.002441328558,0.003931581522,-0.013067176238,0,6,228.1592533,0,3,13,14.0,-0.001,209.2576696995196,373.293,148.698896
B-1000,Cc1cc(O)c2c(O)c3c(O)cccc3cc2c1,-3.0585,18,48.0,12.521,-0.004187527264,0.008400754872,-0.045006705414,0,5,228.1592533,0,3,12,14.0,-0.001,193.9012747047233,360.165,146.777106
B-2105,OC(=O)C(=O)C(c1ccccc1)c2ccccc2,-2.3354,18,48.0,0.191,-0.001173847495,0.008770180939,0.003359198206,0,3,228.1592533,0,3,15,15.0,0.0,205.64297947804337,359.889,148.44201
B-783,CC(=O)Oc1ccccc1C(=O)Oc2ccccc2,-4.1077,19,51.0,14.64,-0.001913220503,0.001898095315,-0.036562964656,0,6,244.1586582,0,4,13,14.0,0.0,212.12320863905785,385.719,152.800638
F-119,COC(=O)C1=CC2=CC3=C(OC(=O)C=C3C)C(C)=C2O1,-5.16,20,54.0,9.437,-0.0032695850309999,0.013936049399,-0.016153321221,0,9,260.1580631,0,5,19,13.0,0.001,221.994218389886,442.182,156.89437
F-1075,COC(=O)C1=CC2=C(OC1=O)C(C)=C1OC=C(C)C1=C2,-4.9,20,54.0,7.345,-0.002212536413,0.009481171962,-0.012141845791,0,10,260.1580631,0,5,15,14.0,-0.001,220.0906720350317,426.387,160.974844
C-1419,OC1=CC(=C2C(=O)CC(OC2=C1)C3=CC=C(O)C(=C3)O)O,-3.62,21,57.0,10.317,-0.006704172564,0.0271844348419999,-0.026288481072,0,8,276.157468,0,6,17,18.0,0.001,222.47936272244263,439.31,161.71784
B-4502,Oc1cc(O)c2C(=O)C[C@H](Oc2c1)c3ccc(O)c(O)c3,-3.6147,21,57.0,10.299,-0.006702298536,0.027205272484,-0.026210697683,0,8,276.157468,0,6,17,18.0,0.0,222.6156450758612,439.48,161.71725800000002
B-3494,CCOC(=O)COc1cc(c(F)cc1Cl)c2nn(C)c(OC(F)F)c2Cl,-5.6161,25,72.0,10.261,-0.003438152904,0.009907701505,-0.074753843809,0,25,400.0731492,2,4,13,11.0,0.0,294.078659130575,500.102,208.267445
B-3132,Clc1cc(Cl)c(cc1OCC#C)N2N=C3CCCCN3C2=O,-4.3251,22,60.0,2.591,-0.002085449094,0.000719485205,-0.020647362465,0,11,325.0858331,3,2,13,14.0,0.0,254.37189641074684,471.627,195.109637
B-3528,CCOc1nc(F)cc2nc(nn12)[S](=O)(=O)Nc3c(Cl)cccc3C(=O)OC,-4.4292,27,78.0,23.169,-0.0067115076839999,0.012756019032,-0.0522265762199999,0,20,416.7077073,5,5,24,17.0,-0.001,311.4296211999261,557.6659999999999,233.407366
G-1034,CCN2c1nc(C)cc(C(F)(F)F)c1NC(=O)c3cccnc23 ,-4.207,23,63.0,6.952999999999999,-0.002354905589,0.006154572511,-0.022469581144,0,13,309.1824657,4,1,13,15.0,0.0,241.3598213993144,421.5580000000001,174.971098
C-666,CC(C(O)=O)C1=CC=C(C(=C1)F)C2=CC=CC=C2,-4.29,18,48.0,4.856,-0.00097707403,0.005360458477,-0.0089227576839999,0,6,231.1582515,0,2,14,11.0,0.0,206.8717812954319,407.128,144.52518999999998
C-1050,CN1C(=C(O)C2=C(C=CC=C2)[S]1(=O)=O)C(=O)NC3=CC=CC=N3,-4.5,23,63.0,8.386000000000001,-0.009026661727,0.010481716908,-0.059466621617,0,9,318.24355519999995,3,4,21,16.0,0.0,254.4574953607924,443.478,194.621275
B-2806,CN1C(=C(/O)Nc2ccccn2)/C(=O)c3ccccc3[S]1(=O)=O,-4.1586,23,63.0,6.362,-0.009351532247,0.011987263122,-0.044022599473,0,9,318.24355519999995,3,4,15,18.0,0.0,251.02409641995052,430.586,194.26127
A-435,COc1ccc(cc1[N+]([O-])=O)C(=O)Nc2ccc(cc2)C(N)=O,-4.653605269,23,63.0,8.085,-0.004887375753,0.0110712680569999,-0.026138011122,0,8,302.1781727,3,5,21,16.0,0.0,253.46674048585615,461.737,179.603639
A-5663,CCN1C(=O)C(=N/Nc2ccccc2[N+]([O-])=O)\C(=C(C#N)C1=O)C,-6.815976001,24,66.0,20.892,-0.005175891539,0.0056404623899999,-0.060279837286,0,10,314.1921742,5,4,25,17.0,0.0,259.10593537196223,458.422,189.515722
F-547,CC(=O)NC1=CC2=C(C=C1)C1=C(C=CC=C1)C2,-4.24,17,45.0,5.162000000000001,-0.0003459015699999,-0.002183657629,-0.005541041039,0,3,210.1671466,1,1,10,13.0,0.0,194.66111023580555,363.801,144.989583
A-5054,COC1=Cc2ccccc2Nc3ccccc13,-4.514419394,17,45.0,3.327,-3.4193948e-05,-0.005242567007,-0.01514107011,0,2,210.1671466,1,1,12,13.0,0.0,190.0333247131632,356.155,146.737865
G-1048,O2c1ccccc1N(CC)C(=O)c3ccccc23 ,-3.68,18,48.0,7.19,-0.001733333843,0.001394704608,-0.0141827458199999,0,5,226.1665516,1,2,11,12.0,0.0,197.4854745450941,362.344,151.191049
B-2414,CN1c2ccccc2Sc3ccc(CC(O)=O)cc13,-3.9422,19,51.0,25.166,-0.00811278543,0.008693475257,-0.081086209058,0,7,258.231339,1,2,9,13.0,0.0,219.50896541171736,388.26,166.260446
C-2149,CC(=O)C1=CC=CC(=C1)NC2=CC=CC=C2C(O)=O,-4.86,19,51.0,7.774,-0.003368453207,0.007234504524,-0.021225628972,0,7,242.1659565,1,3,9,9.0,0.0,211.6341077535484,392.824,153.659817
B-303,Cc1cccc(NC(=O)c2ccccc2C(O)=O)c1,-2.407,19,51.0,9.653,-0.005352546525,0.00465196589,-0.046464483344,0,7,242.1659565,1,3,13,14.0,0.0,212.99631287191943,378.611,153.543472
C-2107,CC(=O)OC1=CC=C(NC(=O)C2=CC=CC=C2)C=C1,-4.14,19,51.0,10.22,-0.002652724009,0.005132026532,-0.0243473263499999,0,6,242.1659565,1,3,14,14.0,0.0,214.59251753449792,379.809,154.624227
F-784,O=C(C1=CC=CC=C1)C1=CC=C2C(C(=O)O)CCN12,-3.26,19,51.0,5.175,-0.003406615757,0.010553943678,-0.007200150362,0,5,242.1659565,1,3,19,17.0,0.0,211.04118469969384,376.887,152.28076299999998
C-2438,CCONC(=O)C1=CN(C)C(=O)C(=C1NC2=CC=C(Br)C=C2F)F,-4.19,23,66.0,13.446,-0.002921870888,0.0075599025109999,-0.0305771444009999,0,17,388.079697,3,3,18,15.0,0.0,274.2054846678696,496.31,198.640154
B-3491,CCOC(=O)C(Cl)Cc1cc(N2N=C(C)N(C(F)F)C2=O)c(F)cc1Cl,-4.2727,26,72.0,10.793,-0.002858851583,0.011731556256,-0.028260347094,0,22,398.0804475,3,3,16,14.0,0.0,290.67405738625934,536.136,210.704865
B-2868,CC(C)(C)C1=NN(C(=O)O1)c2cc(OCC#C)c(Cl)cc2Cl,-5.9648,21,60.0,16.192,-0.001657267286,0.002940999574,-0.034109631329,0,14,327.0785348,2,3,9,9.0,0.0,267.2853787548896,476.778,190.06076
B-2975,N[C@@H](C(=O)N[C@H]1[C@H]2SCC(=C(N2C1=O)C(O)=O)Cl)c3ccccc3,-1.5656,23,66.0,21.696,-0.008811503294,0.013492656769,-0.116072276311,0,14,353.69649280000004,3,4,20,17.0,0.0,285.4715454975285,442.301,206.167399
B-159,N[S](=O)(=O)c1cc2c(NC(Cc3ccccc3)N[S]2(=O)=O)cc1C(F)(F)F,-3.5913,27,75.0,7.346,-0.014963247559,0.019487652326,-0.0472992915079999,0,19,407.3035521,3,4,17,18.0,0.001,290.81269311945204,501.30300000000005,221.877023
G-1032,O2c1ccc(N)cc1N(C)C(=O)c3cc(C)ccc23 ,-3.928,19,51.0,5.18,-0.001800901112,-0.000399657728,-0.020273212757,0,5,240.1732548,2,2,12,13.0,0.0,213.12020388899668,367.287,152.830062
C-2143,CC(=O)OC1=CC=C(NC(=O)NC2=CC=CC=C2)C=C1,-4.44,20,54.0,1.839,-0.00058896674,-0.000304470688,-0.010026588703,0,6,256.1726597,2,3,9,14.0,0.0,225.2619210580185,412.73,158.120476
F-1001,NC(=O)N1C2=C(C=CC=C2)C(O)C(O)C2=C1C=CC=C2,-2.03,20,54.0,4.359,-0.004146636386,0.009061081949,-0.025477846917,0,7,256.1726597,2,3,12,15.0,0.0,213.4227508560749,363.252,160.431875
B-3330,OC(O)(C(=O)Nc1ccccc1)C(=O)Nc2ccccc2,-2.4568,21,57.0,12.647,-0.001297499096,0.004233109449,-0.022395239743,0,4,272.1720646,2,4,24,18.0,-0.001,241.59674255356063,440.995,167.627595
G-864,Cc3ccnc4N(C1CC1)c2ncccc2C(=O)Nc34 ,-3.19,20,54.0,6.622000000000001,-0.002572985025,-0.001107656187,-0.0261919342499999,0,6,252.1872563,4,1,10,13.0,0.0,214.153258987704,387.986,164.041664
C-2322,CN1C(=O)N(C)C2=C([NH]C(=N2)\C=C\C3=CC=CC=C3)C1=O,-6.66,21,57.0,6.019,-0.001789044454,0.00308781111,-0.015721410378,0,8,268.18666119999995,4,2,17,15.0,-0.001,229.11294263207475,445.107,171.02481
B-4501,Nc1ccc(cc1)[S](=O)(=O)Nc2ccnn2c3ccccc3,-2.3213,22,60.0,5.1370000000000005,-0.005950989999,-0.0005183614669999,-0.0385876046389999,0,6,300.2514486,4,2,18,16.0,0.0,238.35041744295148,425.108,191.842061
A-3054,NC1=Nc2[nH]cc(CCc3ccc(cc3)C(O)=O)c2C(=O)N1,-3.574289036,22,60.0,15.976,-0.00319471822,0.004666231178,-0.0315304138,0,8,284.1860661,4,3,19,19.0,0.0,238.5335239043248,466.937,173.790109
B-4242,CCO[P](=S)(Oc1ccc(cc1)C#N)c2ccccc2,-5.7037,20,54.0,4.334,-0.0005069827229999,-0.002536644538,-0.0114694574799999,0,6,289.205101,1,2,16,17.0,0.0,247.733067471574,454.358,190.953759
A-1053,O=C(Cc1ccccc1)OCc2ccccc2,-3.86327488,17,45.0,4.024,-0.002301030249,0.006244902044,-0.0118144104799999,0,4,212.1598483,0,2,9,12.0,0.0,203.3851912799836,346.788,141.19315500000002
I-38,CC(C(O)=O)c1cccc(Oc2ccccc2)c1,-3.7,18,48.0,4.352,-0.000952692801,0.005234365761,-0.0044585197369999,0,3,228.1592533,0,3,13,16.0,0.0,209.46147082714504,362.0580000000001,149.54583200000002
A-422,Oc1ccccc1C(=O)OCCc2ccccc2,-4.489105335,18,48.0,10.411,-0.002951571565,0.0042336190389999,-0.026524807758,0,5,228.1592533,0,3,15,15.0,-0.001,200.6900808345094,399.279,147.415637
B-299,COc1c2C=CC(=O)Oc2cc3OC(C)(C)C=Cc13,-3.81,19,51.0,14.786,-0.002688779429,0.0044202373,-0.0490361862189999,0,7,244.1586582,0,4,11,12.0,0.0,213.8366399710765,396.971,155.530585
C-2411,CONC(=O)C1=CN(C)C(=O)C(=C1NC2=CC=C(Br)C=C2F)C,-3.28,22,63.0,4.549,-0.003679044616,0.003034614153,-0.032398104764,0,15,369.0812938,3,3,14,12.0,0.0,271.13158989794533,454.615,191.859173
F-1072,CCCOCC(=NC1=C(C(F)(F)F)C=C(Cl)C=C1)N1C=CN=C1,-4.44,22,63.0,4.846,-0.000232487958,0.001036753055,-0.015240818259,0,15,330.6287001,3,1,11,14.0,0.0,259.1310554811369,450.626,181.532793
B-3455,COC(=O)CSc1cc(N=C2SC(=O)N3CCCCN23)c(F)cc1Cl,-5.6768,24,69.0,3.821,-0.002617778476,0.013786537736,-0.018125213633,0,13,388.7602784,3,3,23,21.0,0.0,161.8214011090053,551.818,227.134251
B-1775,CN(C)C(=O)Nc1ccc(Oc2ccc(Cl)cc2)cc1,-4.8953,19,54.0,12.148,-0.002446281979,0.0031455560489999,-0.024396237562,0,9,275.6261923,2,2,10,13.0,-0.001,237.2330816541005,436.234,169.206972
B-2935,NC(=O)C1(CCCCC1)N2C(=O)c3cccc(Cl)c3C2=O,-4.0097,20,57.0,1.383,-0.002898429069,0.007708937635,-0.011053566604,0,9,291.62559730000004,2,3,14,15.0,0.0,237.5260340779785,400.714,176.229627
C-1002,CC1=C(NC(=O)C2=CC(=C(Cl)C=C2O)[S](N)(=O)=O)C(=CC=C1)C,-3.9,22,63.0,4.091,-0.0119281861379999,0.013043648498,-0.0566852289059999,0,13,339.68978960000004,2,4,18,15.0,-0.001,277.3167820636402,454.211,200.601946
C-1048,CCOC(=O)C1=CC=CC=C1[S](=O)(=O)NC(=O)NC2=NC(=CC(=N2)OC)Cl,-4.58,27,75.0,21.696,-0.0061770446999999,0.002811712525,-0.079894735005,0,19,399.7020058,4,6,18,17.0,0.0,304.4207492124744,496.992,228.71638
G-493,CCOC(=O)c1ccccc1S(=O)(=O)NN(C=O)c2nc(Cl)cc(OC)n2,-4.5760000000000005,26,75.0,15.283,-0.005654504914,0.008080319195,-0.05272395033,0,20,399.7020059,4,6,18,15.0,0.0,305.9787096196458,516.56,228.93977
B-1736,Cc1cc(O)c(Cc2ccccc2)c(C)c1Cl,-4.3009,17,45.0,2.594,-0.000191463588,-0.001394491127,-0.006530360886,0,6,231.613381,0,1,9,10.0,0.0,208.8640779562065,351.923,149.862231
B-3009,CC(C)C(O)(c1ccc(OC(F)(F)F)cc1)c2cncnc2,-3.4377,22,60.0,3.819,-0.002327026103,0.008254947284,-0.0106118504309999,0,16,297.1684642,2,2,11,12.0,0.0,248.35769612529427,404.984,164.749302
G-1045,CCN2c1ccccc1N(C)C(=O)c3cccnc23 ,-3.324,19,51.0,8.355,-0.000154580382,-0.002121200058,-0.014255644437,0,5,238.1805531,3,1,17,13.0,0.0,218.69030396816467,383.504,161.13919
D-1920,CC(=O)Nc1ccc(N\N=C\2C=C(C)C=CC2=O)cc1,-5.358,20,54.0,8.872,-0.001641936153,0.0018251247029999,-0.017266060772,0,5,254.179958,3,2,15,14.0,0.001,174.59025389326754,479.344,161.05076100000002
C-1489,CC(C)COC(=O)[N]1C2=C(C=CC=C2)N=C1C3=CSC=N3,-4.17,20,57.0,7.781000000000001,-0.00089358893,-0.001739060056,-0.018699505949,0,9,286.2447454,3,2,16,12.0,0.0,241.8673780949381,432.208,183.384487
G-1037,CCN2c1ccccc1N(C)C(=S)c3cccnc23 ,-4.706,18,51.0,5.28,-3.862501e-06,-0.0031670550309999,-0.012665148452,0,6,254.2459355,3,0,12,13.0,0.0,225.79550598700368,381.812,174.564009
B-102,Cc1cccc(Nc2ccccc2C(O)=O)c1C,-4.0815,18,48.0,8.654,-0.0043519771019999,0.0016908858119999,-0.050056229035,0,6,226.1665516,1,2,12,14.0,0.0,211.285537566754,352.592,149.49899299999998
A-3061,CCOC(=O)N(c1ccccc1)c2ccccc2,-3.969239559,18,48.0,8.6,-0.001609971969,-0.000987695926,-0.0182295023199999,0,5,226.1665516,1,2,11,12.0,0.0,206.45448285697225,368.009,151.141565
C-696,C[N]1C(=CC=C1C(=O)C2=CC=C(C)C=C2)CC(O)=O,-4.09,19,51.0,6.785,-0.00474689521,0.009739960201,-0.022182868433,0,6,242.1659565,1,3,13,10.0,0.0,228.630608578782,382.386,154.726454
F-670,CCOC1=C(C(=O)N(O)C2=CC=CC=C2)C=CC=C1,-3.37,19,51.0,4.12,-0.002271525553,0.00062503099,-0.019580665269,0,6,242.1659565,1,3,13,12.0,0.0,213.39383298401052,387.429,156.36463500000002
F-669,O=C(NC1=CC=CC=C1)C(O)COC1=CC=CC=C1,-2.41,19,51.0,1.506,-0.001160374906,0.002118475492,-0.005182361749,0,3,242.1659565,1,3,21,16.0,-0.001,217.8500677684065,453.901,154.709551
F-881,COC1=CC(OC)=CC(C(=O)N(O)C2=CC=CC=C2)=C1,-3.1,20,54.0,18.524,-0.002579035094,0.00048849395,-0.062667171495,0,7,258.1653614,1,4,16,9.0,0.0,224.11356256553887,419.36800000000005,162.111704
A-2122,CC(C)c1ccc(cc1)c2ccccc2,-5.609857774,15,39.0,1.304,-7.12622e-07,-0.00508653396,-0.007250811762,0,1,180.1610385,0,0,10,12.0,0.0,181.63763471415095,354.691,132.738603
B-3127,CCCN(CCOc1c(Cl)cc(Cl)cc1Cl)C(=O)n2ccnc2,-4.0445,20,63.0,3.067,-0.0016545879269999,0.003419890418,-0.016265875417,0,15,360.5387707,3,2,11,11.0,0.0,281.71664871659243,491.009,208.496703
B-3354,CSC(=O)c1c(CC(C)C)c(C(=O)SC)c(nc1C(F)F)C(F)(F)F,-5.4575,24,69.0,6.0120000000000005,-0.002436256777,0.0153798912159999,-0.021846751252,0,23,385.2881422,1,2,15,13.0,0.0,308.4024956942862,492.11800000000005,207.688658
A-372,CN(C(=O)N(C)c1ccccc1)c2ccccc2,-3.497557581,18,48.0,5.399,-0.003113477126,0.000779822917,-0.0170065974949999,0,2,224.17384980000003,2,1,10,12.0,0.0,212.5692825992693,363.136,146.73786
B-2374,COc1ccc(cc1)C(O)(C2CC2)c3cncnc3,-2.5959,19,51.0,15.159,-0.004215346211,-0.0019443013209999,-0.064553114843,0,5,240.1732548,2,2,10,16.0,0.0,211.2541134241129,392.026,155.753836
C-1420,CCN1C=C(C(=O)OCOC(C)=O)C(=O)C2=C1N=C(C)C=C2,-2.49,22,60.0,14.802,-0.003521511665,0.008910693021,-0.039087416824,0,11,288.1714695,2,5,15,14.0,0.0,243.6556583485,454.447,172.26512
B-356,CN(C)c1ccc2nc3cc(C)c(N)cc3[s+]c2c1,-0.9034,18,51.0,3.985,-0.000439822594,-0.006410656082,-0.100248155219,0,4,254.2459355,3,0,8,12.0,0.0,234.53030987876363,408.603,169.856374
G-1039,CCN2c1ncccc1N(CC)C(=O)c3cccnc23 ,-2.86,20,54.0,1.487,-0.001895274976,-0.0015241604449999,-0.019522270409,0,5,252.1872563,4,1,14,14.0,0.0,222.9936977240953,376.137,162.487984
G-1035,CCN2c1nc(C)cc(C)c1NC(=O)c3cccnc23 ,-4.553999999999999,20,54.0,5.477,-0.002220976098,-0.001179235461,-0.022151128872,0,6,252.1872563,4,1,13,13.0,0.0,223.5854542194075,390.03,163.570539
B-3200,COC(=O)c1ccccc1[S](=O)(=O)NC(=O)Nc2nc(C)cc(C)n2,-3.1742,25,69.0,12.646,-0.004222863228,0.006341141731,-0.044816915656,0,15,348.2496633,4,5,17,17.0,0.0,287.77135021261614,472.634,204.596015
C-2267,NC(=N)C1=CC(=CC=C1)NC(=O)NC2=CC(=CC=C2)C(N)=N,-1.77,22,60.0,3.033,-0.000250354317,-0.010849523888,-0.023280007943,0,8,280.2006627,6,1,11,15.0,0.0,251.8978831955976,448.964,176.05736299999998
A-2348,CC(C)(c1ccccc1)c2ccc(O)cc2,-4.096484707,16,42.0,3.322,-0.001980275229,0.001658721582,-0.014197648809,0,3,196.1604434,0,1,7,13.0,0.0,196.4921188857508,349.38,136.53098500000002
F-380,COC1=CC=C2C=C(CCC(C)=O)C=CC2=C1,-1.46,17,45.0,19.301,-0.002593388612,0.001408674582,-0.031854525327,0,2,212.1598483,0,2,14,12.0,-0.001,207.16979278178647,403.11300000000006,145.661526
A-1065,CC(C)(c1ccc(O)cc1)c2ccc(O)cc2,-2.879922295,17,45.0,2.043,-0.003966615239,0.008074690747,-0.020353016268,0,5,212.1598483,0,2,8,11.0,0.001,203.76020422901223,367.441,138.500176
F-799,COC(=O)C(C)C1=CC2=CC=C(OC)C=C2C=C1,-4.78,18,48.0,13.785,-0.001851592123,-0.000591611005,-0.030242982034,0,4,228.1592533,0,3,15,16.0,-0.001,218.0669997089037,409.903,151.0622
B-988,COc1ccc2C=CC(=O)Oc2c1CC=C(C)C,-4.3087,18,48.0,14.387,-0.002608414724,0.001806649893,-0.039920352314,0,5,228.1592533,0,3,12,13.0,0.0,205.09643348363744,400.973,149.50256000000002