Name,SMILES,Solubility,AtomNum,DegFreedom,Dipole,Ghb,Gsasa,Gsolv,HNum,LP,MolWt,NNum,ONum,PiCenters,PiDeloc,Quadrupole,Volume,SASA,Polarizabilty
A-2169,CCc1ccc2C(=O)c3ccccc3C(=O)c2c1,-5.984242497,18,48.0,2.737,-0.002444281919,0.004237015342,-0.013972387431,0,4,224.1705842,0,2,11,13.0,-0.001,196.82689363930663,370.272,152.530578
A-5676,CCOC(=O)c1ccc2Sc3ccccc3C(=O)c2c1,-6.756602507,19,54.0,17.798,-0.004348137379,0.007757546872,-0.041053278285,0,7,272.23477660000003,0,3,13,16.0,0.0,226.19645160937975,423.897,177.096606
B-2065,OC(=O)c1ccccc1CC(=O)c2ccccc2C(O)=O,-2.7910000000000004,21,57.0,6.964,-0.005889704196,0.015120195918,-0.030386048071,0,6,272.16879900000004,0,5,15,16.0,0.0,234.4704225946117,377.906,165.46848400000002
A-2184,COc1ccc(cc1O)C2=CC(=O)c3c(O)cc(O)cc3O2,-6.198752558,22,60.0,14.054,-0.006573476298,0.018587326864,-0.044384623739,0,10,288.1682039,0,6,16,13.0,0.0,240.0716475695015,420.8130000000001,170.06062
B-971,Oc1ccc2c(OCC3(O)CC4=CC(=O)C(=CC4=C23)O)c1O,-2.6994,22,60.0,8.107999999999999,-0.005733508841,0.026051069068,-0.01534812588,0,9,288.1682039,0,6,16,16.0,0.0,229.9762243852324,448.636,170.38504
B-2616,OC(=O)C(c1ccccc1C(O)=O)c2ccccc2C(O)=O,-2.4998,22,60.0,4.049,-0.004586402792,0.015235759918,-0.013551264194,0,9,288.1682039,0,6,17,16.0,0.001,240.95469673318283,410.041,171.036236
A-2917,CC1=NN(C(=N)/C1=N/Nc2cc(Cl)c(cc2Cl)[S]([O-])(=O)=O)c3ccccc3,-1.237068525,25,75.0,12.56,-0.0127725422,0.006917523242,-0.092314322376,0,15,413.1741678,5,3,14,16.0,0.0,313.7366282984896,503.537,244.369462
B-3160,COC(=O)C(C)Oc1ccc(Oc2ncc(cc2Cl)C(F)(F)F)cc1,-4.6064,24,69.0,1.195,-0.0014270237229999,0.011037637609,-0.005209208079,0,20,362.6242444,1,4,14,16.0,0.001,280.93907425345947,521.889,191.468923
B-3035,CC(N(c1ccc(F)c(Cl)c1)C(=O)c2ccccc2)C(O)=O,-4.2474,21,60.0,6.726,-0.002085274003,0.009636656482,-0.01330414772,0,11,308.62803310000004,1,3,14,13.0,0.0,255.79333309939457,436.874,183.22568
F-1105,CN1C(=O)CN=C(C2=CC=CC=C2)C2=C1C=CC(Cl)=C2,-3.71,19,54.0,4.91,-0.000994318514,0.0017467814,-0.0073996857689999,0,6,271.6375233,2,1,12,12.0,0.0,236.0428290210709,403.383,176.658329
C-1458,CN1C(=O)C(O)N=C(C2=CC=CC=C2)C3=C1C=CC(=C3)Cl,-2.7,21,57.0,11.964,-0.0038082716619999,0.007418530328,-0.023220236382,0,8,287.63692819999994,2,2,12,14.0,-0.001,238.7989044786069,397.692,177.609265
B-3234,OC(Cn1cncn1)(c2ccc(F)cc2)c3ccccc3F,-3.3651,22,60.0,4.584,-0.002270660798,0.0031070762709999,-0.020124615222,0,10,288.18809530000004,3,1,9,13.0,0.0,246.79274896029912,386.6830000000001,170.58576499999998
A-2091,N(c1ccccc1)c2ccc3ccccc3c2,-5.495914846,17,45.0,4.533,-1.728611e-06,-0.0057765148659999,-0.009188091209,0,1,206.1784776,1,0,10,12.0,0.0,199.639550304828,348.926,149.47333400000002
A-5069,N(c1ccccc1)c2cccc3ccccc23,-4.863891631,17,45.0,5.135,-1.424582e-06,-0.005470494655,-0.007340915912,0,2,206.1784776,1,0,8,12.0,0.0,196.6562064165392,336.17,148.231056
D-1420,Nc1ccc2ccccc2c1N=Nc3ccccc3,-5.916,19,51.0,1.958,-2.797904e-06,-0.006796035258,-0.008436445361,0,2,234.191884,3,0,9,13.0,0.0,214.17779528359296,380.885,162.111449
B-2554,COc1cc(NC(=O)c2cccnc2)c3ncccc3c1,-4.4461,21,57.0,7.571000000000001,-0.00017901811,-0.0066801700549999,-0.0259743187779999,0,7,266.19069390000004,3,2,11,13.0,0.0,232.47479390932065,419.237,171.513628
E-727,c1c(N(=O)(=O))cc2C(c3ccccc3)=NCC(=O)N(C)c2c1,-3.8,22,60.0,4.023,-0.004374551677,0.009502185143,-0.019197532288,0,8,282.1900988,3,3,15,15.0,-0.001,243.10244599115623,411.023,178.682975
C-945,COC(=O)NC1=NC2=CC(=CC=C2[NH]1)C(=O)C3=CC=CC=C3,-3.88,22,60.0,5.446000000000001,-0.002751082564,0.004633250377,-0.013516994203,0,6,282.1900988,3,3,21,18.0,-0.001,247.78004255960803,448.875,178.560263
A-2954,Nc1ccc(N\N=C\2C=Cc3c(cccc3[S]([O-])(=O)=O)C2=O)cc1,-1.2915600390000002,24,66.0,7.343999999999999,-0.012771078661,0.009453183711,-0.090347497029,0,13,330.25429110000005,3,4,15,15.0,0.001,257.76287893613585,504.782,205.955547
B-693,Oc1cc(cc2ccc(Nc3ccccc3)cc12)[S](O)(=O)=O,-1.9763,22,60.0,11.129,-0.016209670373,0.014624238801,-0.046072867178,0,9,302.2408847,1,4,17,17.0,0.0,248.2471146914229,431.42,189.859941
B-3590,Cc1c2ccccc2c(C)c3ccccc13,-6.5663,16,42.0,0.003,-7.481359999999999e-07,-0.004605114299,-0.005820832915,0,0,192.1717744,0,0,6,13.0,-0.001,185.5431422725842,321.121,135.830123
B-3594,CCc1ccc2cc3ccccc3cc2c1,-6.8863,16,42.0,10.322,-2.231979e-06,-0.005300498296,-0.015601622191,0,1,192.1717744,0,0,7,10.0,0.0,189.4707264106553,369.611,144.418418
C-2569,N[S](=O)(=O)C1=CC=C(NC2=NC(=NC=C2)N[S](=O)(=O)C3=CC=C(Br)C=C3)C=C1,-2.62,27,78.0,5.492000000000001,-0.015707003567,0.0127291284379999,-0.0446760913549999,0,18,470.23601270000006,5,4,18,16.0,0.0,334.9950269688859,545.961,257.004132
B-1969,CN(C)C(=O)N(c1ccc(Cl)c(Cl)c1)C(=O)c2ccccc2,-4.3238,20,60.0,4.174,-0.001780154466,0.003144435446,-0.0121352308229999,0,12,323.08986580000004,2,2,10,14.0,0.0,267.18997187177104,444.852,193.216097
D-1675,CCOC(=O)C(O)(c1ccc(Cl)cc1)c2ccc(Cl)cc2,-4.512,19,57.0,14.785,-0.002961355552,0.0067758306079999,-0.028368732335,0,11,311.07586430000003,0,3,12,13.0,0.0,260.6038306408849,454.849,186.647598
D-303,COC(=O)C(C)Oc1ccc(Oc2ccc(Cl)cc2Cl)cc1,-3.834,20,60.0,11.973,-0.0004773950039999,0.00822554092,-0.014933753687,0,11,327.0752692,0,4,14,14.0,0.0,270.019646202469,505.12,192.446755
C-2572,COC1=C(F)C=C(C=C1)C2=C(Cl)N=C[N]2C3=CC=C(C=C3)[S](=O)(=O)N[P](O)(O)=O,-2.55,28,81.0,14.297,-0.031800338246,0.01867989381,-0.089354753102,0,20,447.6782036999999,2,6,12,14.0,-0.001,331.507964135864,530.023,255.070513
B-74,CN=C1CN(O)C(=C2C=C(Cl)C=CC2=N1)c3ccccc3,-2.1757,20,57.0,7.727,-0.003006460738,0.000612755295,-0.019734332933,0,7,285.6442265,3,1,12,14.0,0.0,240.2102777850599,412.163,183.244543
F-870,CNC1=NC2=C(C=C(C=C2)Cl)C(=[N+](C1)O)C3=CC=CC=C3,-3.39,20,57.0,6.064,-2.6604515e-05,-0.002263046402,-0.086274379596,0,7,285.6442265,3,1,12,10.0,0.001,240.16995055786407,421.896,180.223897
C-919,CNC1=NC2=CC=C(Cl)C=C2C(=[N+]([O-])C1)C3=CC=CC=C3,-4.48,21,57.0,7.737999999999999,-0.003011789008,0.00062003601,-0.019741935866,0,7,285.6442265,3,1,12,15.0,0.001,240.2100111090499,412.219,183.243624
G-1047,C2c1ccccc1N(CCF)C(=O)c3ccccc23 ,-3.535,19,51.0,4.6610000000000005,-0.001875598811,0.00214116209,-0.0139734209559999,0,5,241.1762857,1,1,13,12.0,0.0,206.6601188093797,376.451,157.46463400000002
C-872,CC1=CC=CC=C1N2C(=NC3=C(C=CC=C3)C2=O)C,-2.92,19,51.0,1.474,-0.001720505076,-0.001888212195,-0.016129587581,0,5,236.1845857,2,1,12,14.0,0.0,217.63903566340355,373.68,157.171604
B-3190,CN(C(=O)COc1sc2ccccc2n1)c3ccccc3,-4.8727,21,57.0,11.208,-0.0002218526429999,0.004668809349,-0.016894050359,0,6,284.24877810000004,2,2,15,12.0,0.0,248.841407534328,444.778,185.75062
C-950,CCC1=C(N=C2C=C(O)C(=O)C3=C2C=CC=C3)C(=NO1)C,-2.72,21,57.0,4.468999999999999,-0.002298170033,0.005925383041,-0.021039991488,0,7,268.1833956,2,3,12,16.0,0.0,229.4200443509748,404.337,170.984586
C-2240,OCN1C(=O)NC(C1=O)(C2=CC=CC=C2)C3=CC=CC=C3,-3.3,21,57.0,2.36,-0.002747564825,0.01086048239,-0.001024036937,0,4,268.1833956,2,3,20,17.0,0.0,231.06919100447465,407.418,168.510316
A-5607,CC1=NN(c2ccccc2)C(=O)C1N=Nc3ccccc3,-7.541446627000001,21,57.0,1.899,-0.0001587383729999,-0.004919382944,-0.010187291353,0,3,264.1979922,4,1,11,14.0,0.0,235.6949416213412,395.425,170.41996899999998
C-2502,N[S](=O)(=O)C1=CC=C(NC2=NC(=NC=C2)NC(=O)C3=CC=CN=C3)C=C1,-1.27,26,72.0,22.703000000000003,-0.008788616154,0.004119664149,-0.067170584255,0,9,356.2749958,6,3,26,19.0,0.0,302.73696383202275,500.773,217.45834700000003
F-428,CC(C(=O)O)C1=CC=CC(C(=O)C2=CC=CC=C2)=C1,-3.47,19,51.0,1.4380000000000002,-0.002275127499,0.0080433675799999,-0.008747041805,0,4,240.1699892,0,3,13,14.0,0.0,220.3129751127564,381.084,158.180296
F-358,COC1=CC=C(C=CC(=O)C2=C(O)C=CC=C2)C=C1,-5.7,19,51.0,6.69,-0.002491162103,0.002586898512,-0.021509069844,0,5,240.1699892,0,3,17,12.0,0.0,214.6528764513031,414.221,158.053349
B-1314,CCOC(=O)c1ccccc1C(=O)c2ccccc2,-3.4053,19,51.0,15.784,-0.003004131213,0.0044814666,-0.03671205739,0,5,240.1699892,0,3,14,14.0,0.0,215.46975049786735,388.576,157.595753
B-2807,OC(=O)CCC(=O)c1ccc(cc1)c2ccccc2,-5.0609,19,51.0,28.913,-0.008308255112,0.01212343512,-0.079020061008,0,6,240.1699892,0,3,16,16.0,0.0,211.23557096255203,423.094,155.71471200000002
A-2253,Cc1ccc(cc1)C(=O)OOC(=O)c2ccc(C)cc2,-6.798351882,20,54.0,0.171,-0.002894184516,0.005557728948,-0.0122380959749999,0,8,256.16939410000003,0,4,14,14.0,0.0,228.6852983880119,427.163,161.34260700000002
B-2348,OC(=O)CC(C(O)=O)(c1ccccc1)c2ccccc2,-2.4318,20,54.0,4.4110000000000005,-0.002714986501,0.011354080585,-0.0016927138639999,0,5,256.16939410000003,0,4,17,18.0,0.0,226.9054635839796,391.012,161.509916
A-5070,O=C(OCCOC(=O)c1ccccc1)c2ccccc2,-5.070092502,20,54.0,3.616,-0.003643491375,0.005985091328,-0.015339310738,0,6,256.16939410000003,0,4,17,16.0,0.0,221.89292770162257,439.511,160.480245
A-5004,OC(=O)C(CCBr)(c1ccccc1)c2ccccc2,-4.069491258,19,51.0,0.262,-0.0008008157739999,0.001818040664,-0.001561856912,0,5,304.074112,0,2,15,12.0,-0.001,231.96236457359876,411.684,174.225304
B-3289,CC(Oc1ccc(Cl)c(C)c1Cl)C(=O)Nc2ccccc2,-7.0057,20,57.0,3.58,-0.0002085902509999,0.000542826337,-0.008357596883,0,10,309.08316260000004,1,2,15,13.0,0.0,261.90818476335386,452.502,189.823981
B-153,COc1ccc(cc1)C(c2ccc(OC)cc2)C(Cl)(Cl)Cl,-6.5386,20,57.0,21.824,-0.000160589027,-0.001728951628,-0.117484392333,0,12,330.529397,0,2,14,13.0,0.001,269.7455466574304,474.377,198.526509
C-751,CN1CCN=C(C2=CC=CC=C2)C3=C1C=CC(=C3)Cl,-4.43,19,51.0,1.4980000000000002,-1.773199e-06,-0.004584724109,-0.0073162166799999,0,5,255.6381184,2,0,9,13.0,0.0,224.6039442154659,368.663,168.482022
F-991,NC1CN(C2=C(F)C3=C(C=C2F)C(=O)C(C(=O)O)=CN3C2CC2)C1,-5.27,24,66.0,9.258,-0.005096570731,0.011008868119,-0.0466320513179999,0,15,320.18690510000005,3,3,13,16.0,0.0,243.58031382579327,457.946,182.026079
B-3293,C[Si](Cn1cncn1)(c2ccc(F)cc2)c3ccc(F)cc3,-3.7665,22,60.0,14.216,-0.000305862944,-0.00164197522,-0.02906468763,0,7,300.27418910000006,3,0,14,14.0,-0.001,267.4712243474856,430.33,190.133518
C-2355,CCCC(=O)OCN1C=C(F)C(=O)N(C1=O)C(=O)C2=CC=CC=C2,-3.73,24,66.0,5.181,-0.0038890743579999,0.014654548354,-0.015062369339,0,13,319.1806086,2,5,22,19.0,0.001,229.0051662285884,472.249,183.612788
C-2058,FCCOC(=O)CC1=CC=C(C=C1)C2=CC=CC=C2,-5.01,19,51.0,11.226,-0.002966046466,0.0046072610499999,-0.022908529574,0,7,243.1689874,0,2,14,11.0,-0.001,213.26024168508383,425.884,154.86340900000002
F-918,OP(=O)(O)OCN1C(=O)NC(C2=CC=CC=C2)(C2=CC=CC=C2)C1=O,-0.43,25,69.0,12.787,-0.029251024137,0.019978448372,-0.032178083002,0,8,347.1553723,2,6,26,22.0,0.0,278.19072482800897,484.21,204.28165
C-2556,N[S](=O)(=O)C1=CC=C(NC2=NC(=NC=C2)N[S](=O)(=O)C3=CC=CC=C3)C=C1,-2.55,27,75.0,20.62,-0.013576395714,0.0105230545779999,-0.056815728059,0,13,390.3324849,5,4,25,17.0,0.0,318.3384844695418,508.078,237.315749
F-534,NC1=C(C(=O)OCC=CC2=CC=CC=C2)C=CC=C1,-6.04,19,51.0,9.078,-0.002224891803,-0.001292479224,-0.018222256048,0,4,238.1772874,1,2,16,15.0,0.0,197.8654096128774,472.729,158.830093
F-540,O=C(O)CN(C(=S)SCC1=CC=CC=C1)C1=CC=CC=C1,-3.92,21,57.0,7.167999999999999,-0.001532080968,0.007250057198,-0.00287656383,0,8,302.30686230000003,1,2,16,17.0,0.0,258.58235618480927,453.162,194.184604
A-2520,C1Cc2ccc(CCc3ccc1cc3)cc2,-5.169478497,16,42.0,0.001,-3.6668700000000003e-07,-0.004529578555,-0.005397255175,0,0,192.1717744,0,0,20,13.0,0.0,182.35543577906688,315.85400000000004,142.732697
C-1985,C1CC2=CC=C3CCCC4=CC=C(C1)C2=C34,-5.96,16,42.0,0.003,-2.54707e-07,-0.004526029024,-0.0045809183909999,0,0,192.1717744,0,0,6,14.0,0.0,174.1298476577393,315.606,142.045274
C-2493,CC1CC2=C(C=CC=C2)N1NC(=O)C3=CC(=C(Cl)C=C3)[S](N)(=O)=O,-3.79,23,66.0,7.489,-0.007466903392,0.006505848145,-0.021757576918,0,12,349.7078238,3,3,11,11.0,0.0,278.24326244853006,464.909,211.085547
B-2512,CC1Nc2cc(Cl)c(cc2C(=O)N1c3ccccc3C)[S](N)(=O)=O,-3.783,23,66.0,15.309,-0.007203053401,0.006213394255,-0.04323964141,0,10,349.7078238,2,3,17,18.0,0.001,291.48544219248413,479.607,212.69057200000003
F-985,NC1CN(C2=CC3=C(C=C2F)C(=O)C(C(=O)O)=CN3C2CC2)C1,-5.32,23,63.0,8.794,-0.005162626656,0.010054489126,-0.047770772406,0,11,301.1885019,3,3,16,17.0,0.0,238.2307306301173,434.157,178.074702
B-1698,Cc1cnc2c(ccc3c(C)c(C)cnc23)c1C,-5.1939,18,48.0,1.513,-5.21292e-07,-0.005772228425,-0.006311595565,0,0,220.1851808,2,0,16,15.0,0.0,221.62674764203527,358.959,156.413971
G-1038,CCN2c1ccccc1N(C)C(=O)c3ccccc23 ,-4.749,19,51.0,3.094,-0.001598052083,0.000139374045,-0.019245929689,0,4,236.1845857,2,1,14,13.0,0.0,214.12742402916552,371.672,160.343773
B-3499,CNC(=O)C(=N/OC)\c1ccccc1Oc2ccccc2,-3.3466,21,57.0,6.071000000000001,-0.0021271083,-0.001026526286,-0.024318447849,0,6,268.1833956,2,3,15,18.0,0.0,238.6610550068588,417.189,171.972368
D-1990,COC(=O)Nc1cccc(OC(=O)Nc2cccc(C)c2)c1,-4.779,22,60.0,4.83,-0.001295323145,0.002778639362,-0.006640734052,0,8,284.1828005,2,4,16,17.0,0.0,251.4541758664217,469.222,174.69435900000002
C-984,CCCN1C(=O)CCC(N2C(=O)C3=C(C=CC=C3)C2=O)C1=O,-3.72,22,60.0,11.002,-0.003807244104,0.011638092946,-0.019417007401,0,7,284.1828005,2,4,18,15.0,0.001,241.8664823061658,443.877,173.869093
F-1091,OCC1OC(N2C(C3=CC=CO3)=NC3=C2C=CC=C3)C(O)C1O,-2.92,23,63.0,4.798,-0.002750973768,0.015174652197,-0.007824034085,0,10,300.1822054,2,5,17,15.0,0.0,237.2915944966575,418.555,172.25572
C-989,CC(=O)OCC1=C(N2C(SC1)C(NC(=O)CC3=CC=CS3)C2=O)C(O)=O,-2.94,24,72.0,12.024,-0.004959337328,0.018358509452,-0.022686153007,0,14,380.3111852,2,6,19,21.0,-0.001,299.22181194775686,546.856,223.46514700000003
I-18,C1(=C(COC(C)=O)CS[C@@H]2[C@H](NC(=O)Cc3cccs3)C(N12)=O)C(O)=O,-2.94,25,72.0,51.619,-0.010002344697,0.020239883459,-0.134254660143,0,15,380.3111852,2,6,20,20.0,0.0,287.0194900530969,551.981,223.399689
A-2619,CN(C(=S)SSC(=S)N(C)c1ccccc1)c2ccccc2,-6.260769992,22,60.0,10.613,-0.000156550639,0.002148982711,-0.006658329396,0,8,348.44433050000004,2,0,12,12.0,0.0,307.66852179785405,461.3,235.141998
C-2368,CN1C(=O)N(C)C2=C([N](C)C(=N2)\C=C\C3=CC=CC=C3)C1=O,-5.55,22,60.0,4.452,-0.002396388152,0.002714819245,-0.018277932166,0,8,280.19739710000005,4,2,16,13.0,0.0,243.29013202538064,458.927,182.091159
C-1006,CC1=CN(C2CC(N=[N+]=[N-])C(COC(=O)C3=CC=NC=C3)O2)C(=O)NC1=O,-2.72,27,75.0,5.734,-0.002191718776,0.002172998509,-0.028066042069,0,10,356.2090183,6,5,22,22.0,0.001,291.1270766722625,528.732,209.435082
B-2881,COc1ccc(cc1C)C(=O)c2cccc(C)c2,-5.0797,18,48.0,10.482,-0.002260314424,0.000560949473,-0.031324425357,0,5,224.1705842,0,2,10,12.0,0.0,212.9744496702685,377.61300000000006,152.301788
A-1670,O=C(Cc1ccccc1)OCCc2ccccc2,-4.188747793,18,48.0,8.396,-0.003024620827,0.006793799799,-0.019029444532,0,3,224.1705842,0,2,10,15.0,-0.001,215.79734331746948,357.445,149.10693999999998
A-2288,O=C(OCCCc1ccccc1)c2ccccc2,-4.800973789,18,48.0,4.154,-0.001399722162,9.891928e-05,-0.012618225302,0,3,224.1705842,0,2,13,13.0,0.0,206.8256013714301,415.38,151.066552
A-2001,COc1ccc(cc1)C(=O)CSc2cccc(OC)c2,-5.284725265,19,54.0,16.041,-0.004975032415,0.001907347869,-0.07423774277,0,5,272.23477660000003,0,3,15,13.0,0.0,240.0361338081279,434.782,179.541089
F-1013,O=C1C2=C(C=CC(CCCCO)=C2)OCC2=C1SC=C2,-3.92,20,54.0,6.165,-0.003323866726,0.009594498961,-0.012445988999,0,8,272.23477660000003,0,3,10,12.0,0.0,225.81964780557183,433.314,173.320428
A-1021,C1OC1COc2ccc3c(OCC4CO4)cccc3c2,-3.919173798,20,54.0,14.727,-0.001204387495,0.010267535771,-0.016453350676,0,6,256.16939410000003,0,4,14,16.0,0.001,216.055615363726,431.6,160.289052
C-2428,CCONC(=O)C1=CN(C)C(=O)C(=C1NC2=C(F)C=C(Br)C=C2)C,-3.82,23,66.0,23.243,-0.002817968733,0.006273674817,-0.056172227473,0,14,381.0920297,3,3,15,15.0,0.0,282.3116572781079,492.22,203.340819
G-1042,CCN2c1cc(OC)cc(C)c1NC(=O)c3cccnc23 ,-5.153,21,57.0,14.653,-0.002933182516,-0.001079826772,-0.052808822446,0,7,266.19069390000004,3,2,12,12.0,0.0,235.01939469551735,399.293,171.595102
C-2299,CC1=C(N2C(SC1)C(NC(=O)C(N)C3=CC=CC=C3)C2=O)C(O)=O,-1.58,24,66.0,9.279,-0.002629194603,0.0104997039149999,-0.023942070301,0,9,330.25429110000005,3,4,22,19.0,0.0,241.646704666552,435.212,200.724877
F-808,CC(NC(=O)CC1=CC=CC=C1)C1=CC=CC=C1,-3.19,18,48.0,1.215,-0.001428868935,0.0006531353149999,-0.014828533371,0,2,222.1778825,1,1,13,13.0,0.0,216.3909931218418,413.418,153.261898
E-700,CN(C)C(=O)C(c1ccccc1)c2ccccc2,-2.98,18,48.0,6.681,-0.0025881357279999,0.000220250517,-0.019231192195,0,4,222.1778825,1,1,9,14.0,0.001,214.1559965198921,348.34,152.978633
F-23,CC1=CC(=O)OC2=C3CCCN4CCCC(=C34)C=C12,-3.89,19,51.0,7.024,-0.002500912917,0.0030696963549999,-0.0181318528129999,0,6,238.1772874,1,2,9,12.0,-0.001,204.76113956354808,354.88800000000003,155.495235
F-876,CC1=CC=CC(N(O)C(=O)CCC2=CC=CC=C2)=C1,-3.41,19,51.0,14.682,-0.004755838614,0.0056963270649999,-0.040790358461,0,5,238.1772874,1,2,9,12.0,0.0,221.2404324885374,363.174,157.3956
F-877,CC1=C(N(O)C(=O)CCC2=CC=CC=C2)C=CC=C1,-2.79,19,51.0,6.035,-0.003467061739,0.002266499738,-0.019773109678,0,4,238.1772874,1,2,11,14.0,0.0,218.0917160122046,407.869,157.890132
C-1391,COC1=CC=C2C=C(C=CC2=C1)C(C)C(=O)OCC(N)=O,-3.93,21,57.0,23.012,-0.002962244801,0.004644798479,-0.043566402746,0,6,270.17609730000004,1,4,20,16.0,0.0,252.61406246291477,461.4380000000001,171.097575
F-885,COC1=CC(OC)=CC(C(=O)N(O)C2=CC(C)=CC=C2)=C1,-3.61,21,57.0,15.163,-0.002486714427,0.000228543855,-0.044855027339,0,9,270.17609730000004,1,4,13,9.0,0.0,238.1910704942569,444.216,171.709789
C-2162,NC(CC1=CC(=C(O)C=C1)O)C(=O)OCC2=CC=CC=C2,-1.81,21,57.0,10.813,-0.002894983082,0.009904863632,-0.015737774213,0,6,270.17609730000004,1,4,21,20.0,0.0,242.83351402649745,466.649,168.764809
B-3502,CCOC(=O)C1=NN(c2ccc(Cl)cc2Cl)C(C)(C1)C(=O)OCC,-4.271,22,66.0,18.949,-0.003588793997,0.006625878601,-0.058176098752,0,14,355.08867569999995,2,4,15,15.0,0.0,286.8008600790724,500.953,205.228618
B-3348,COc1ccsc1CN(C(=O)CCl)c2c(C)cccc2C,-4.4689,20,57.0,10.127,-0.0007934924559999,0.000227169449,-0.020975971837,0,9,305.6950124,1,2,16,14.0,0.0,271.9923060289209,430.099,191.501597
C-2297,CCN1C=C(C(O)=O)C(=O)C2=C1C=C(N3CCNCC3)C(=C2)F,-2.76,23,63.0,26.755,-0.006967414299,0.011118849279,-0.0826473320739999,0,7,301.1885019,3,3,18,18.0,0.0,243.1987369348377,441.806,181.853679
F-1205,CC(NC(=O)C(N)C1=CC=CC=C1)C1=CC=CC=C1,-1.66,19,51.0,5.765,-0.000645046905,-0.000614793544,-0.010277878951,0,2,236.1845857,2,1,14,17.0,0.0,234.3342874091668,385.895,159.73496699999998
B-2428,COc1ccc(Oc2ccc(NC(=O)N(C)C)cc2)cc1,-4.1558,21,57.0,6.631,-0.00037871742,-0.001708426876,-0.030335397729,0,5,268.1833956,2,3,18,17.0,-0.001,247.2322597455488,457.217,173.975309
C-2384,CC(C)OC1=CC=C(C=C1)C(=O)N[S](=O)(=O)C2=CC=C(N)C=C2,-4.3,23,63.0,12.572,-0.007159908263,0.004216516302,-0.0343858274239999,0,10,316.2475879,2,4,19,14.0,0.001,266.4439850770405,472.405,194.045358
F-815,CC1(C)SC2C(NC(=O)CC3=CC=CC=C3)C(=O)N2C1C(=O)O,-1.63,23,63.0,16.148,-0.007743196991,0.016124828774,-0.066956128255,0,9,316.2475879,2,4,19,15.0,0.0,262.41395427685524,459.89,193.33076
F-909,NS(=O)(=O)C1=CC(C(=O)C2=CC=C(CN3CCOCC3)C=C2)=CS1,-1.52,24,66.0,11.032,-0.0117539690739999,0.01548154481,-0.055548791763,0,11,348.3123753,2,4,12,16.0,0.0,288.1143497330962,471.677,215.57511
F-912,NS(=O)(=O)C1=CC(C(=O)C2=CC(CN3CCOCC3)=CC=C2)=CS1,-1.92,24,66.0,6.132000000000001,-0.011279824792,0.0148166241339999,-0.0397358810669999,0,11,348.3123753,2,4,14,15.0,-0.001,296.04962983788585,455.305,214.184915
C-1429,CCN1C=C(C(=O)OCOC(=O)CC)C(=O)C2=C1N=C(C)C=C2,-2.83,23,63.0,23.03,-0.003961868499,0.007498438572,-0.064033737762,0,11,300.1822054,2,5,19,14.0,0.0,254.94696122485007,476.934,182.426937
F-1199,CC1(C)SC2C(NC(=O)COC3=CC=CC=C3)C(=O)N2C1C(=O)O,-2.81,24,66.0,15.312,-0.006779106218,0.016674598821,-0.0454051251929999,0,12,332.24699280000004,2,5,18,17.0,0.001,272.52259080026835,477.63,194.705511
B-103,CN(C)c1ccc2nc3ccc(cc3[s+]c2c1)N(C)C,-0.8655,19,54.0,0.605,-0.000653595357,-0.00467689036,-0.1009569588209999,0,5,266.2566714,3,0,2,12.0,0.0,240.2603344144528,433.045,180.095621
F-846,CC(C)=NNC(=N)N1CC2=CC=CC3=CC=CC(=C32)C1,-2.48,20,54.0,10.75,-5.291233e-06,-0.009014668275,-0.018841124383,0,2,248.1985872,4,0,17,16.0,0.0,242.6715551688551,431.666,167.348942