Name,SMILES,Solubility,AtomNum,DegFreedom,Dipole,Ghb,Gsasa,Gsolv,HNum,LP,MolWt,NNum,ONum,PiCenters,PiDeloc,Quadrupole,Volume,SASA,Polarizabilty
C-2304,CC(C)C1(C)N=C(NC1=O)C2=NC3=C(C=CC=C3)C=C2C(O)=O,-3.72,23,63.0,17.622,-0.006009441646,0.008688062084,-0.057425235219,0,7,294.20083470000003,3,3,22,21.0,-0.001,271.203796643928,474.839,187.72226
A-2756,CCN(CCC#N)c1ccc(cc1)N=Nc2ccc(cc2)[N+]([O-])=O,-7.208650928,24,66.0,15.74,-0.005697884627,0.001372210234,-0.05365105293,0,6,306.2148362,5,2,23,19.0,0.0,269.41926677233795,529.187,193.062644
A-2417,CCOC(=O)CN=C(c1ccccc1)c2ccccc2,-3.427044449,20,54.0,12.925,-0.002655699171,0.001140801012,-0.028858476973,0,4,250.1880234,1,2,14,19.0,0.0,230.2126013646256,428.531,169.06739199999998
F-998,CCOC(=O)C1CCN2C(C(=O)C3=CC=CC=C3)=CC=C12,-4.2,21,57.0,12.281,-0.004064285387,0.005350333378,-0.033430846739,0,6,266.1874283,1,3,17,15.0,-0.001,237.74745874206792,426.035,173.302005
B-3033,Cc1cc(ccc1N=Nc2c(Cl)cc(cc2Cl)[N+]([O-])=O)N(CCO)CCO,-5.9592,25,75.0,10.166,-0.007017909641,0.015712443955,-0.045662424847,0,13,395.112818,3,4,20,20.0,0.0,296.5746727909414,566.43,230.030916
A-2554,Cc1cc(n2nc3ccc(Cl)cc3n2)c(O)c(c1)C(C)(C)C,-5.499417627000001,21,60.0,5.021,-0.000621078204,-0.002667267882,-0.0198446902609999,0,8,297.6549624,3,1,12,11.0,0.001,262.4269035954959,449.728,189.720217
F-1209,CNCCC(OC1=CC=C(C(F)(F)F)C=C1)C1=CC=CC=C1,-1.59,22,60.0,11.996,-0.000342859786,0.00328249452,-0.020119454063,0,11,291.1838279,1,1,12,11.0,0.0,243.843575066784,439.973,173.266343
F-987,CC1(N)CN(C2=CC3=C(C=C2F)C(=O)C(C(=O)O)=CN3C2CC2)C1,-5.62,24,66.0,5.439,-0.004351721143,0.010266203347,-0.039270044844,0,10,313.1992379,3,3,17,16.0,0.0,253.7439272199228,450.668,185.38671
F-986,CNC1CN(C2=CC3=C(C=C2F)C(=O)C(C(=O)O)=CN3C2CC2)C1,-5.41,24,66.0,12.335,-0.005389679028,0.011255835294,-0.046047551758,0,9,313.1992379,3,3,19,20.0,0.0,250.65988955047703,458.107,188.470328
F-1088,CC1C(N)CN1C1=CC2=C(C=C1F)C(=O)C(C(=O)O)=CN2C1CC1,-4.63,24,66.0,8.645,-0.004859397736,0.010032117101,-0.051698902426,0,9,313.1992379,3,3,15,16.0,0.0,262.1534784291175,443.797,189.292124
I-26,O=C(c1cn(C2CC2)c2c(cc(F)c(N3CCNCC3)c2)c1=O)O,-3.6,24,66.0,19.603,-0.0061493237049999,0.0115564243549999,-0.058175483322,0,6,313.1992378,3,3,14,20.0,-0.001,255.480866593621,420.544,188.223268
A-1498,CC(CN\C=C/1C=CC=CC1=O)N\C=C/2C=CC=CC2=O,-3.172023424,21,57.0,13.018,-0.0033489338919999,0.004729319206,-0.020218920176,0,2,264.1947266,2,2,14,22.0,0.0,198.5671581566085,550.798,176.72896
A-2575,CCOC(=O)c1ccc(cc1)N=CN(C)c2ccccc2,-5.450777025,21,57.0,17.381,-0.002508583043,-0.000691769721,-0.0355887644309999,0,4,264.1947266,2,2,17,17.0,0.0,242.1703667184308,470.987,175.66451999999998
F-680,CC1=CC=C(NC(=O)C(O)(O)C(=O)NC2=CC=C(C)C=C2)C=C1,-3.1,23,63.0,0.515,-0.003073448725,0.004611834217,-0.022886713599,0,6,296.1935364,2,4,28,16.0,0.0,278.7029970263162,431.19,184.635388
G-867,COC(=O)C1=C(C)NC(=C(C1c2ccccc2N(=O)=O)C(=O)OC)C ,-4.76,25,69.0,5.354,-0.005281271751,0.011932914309,-0.026854652062,0,12,328.1923462,2,6,23,20.0,-0.001,297.5454708308938,502.088,195.460543
F-1092,OCC1OC(N2C(C3=CC=CO3)=NC3=C2C=CC=C3)C(O)C(O)C1O,-2.33,25,69.0,5.549,-0.003317923981,0.0193311799959999,-0.007779210062,0,12,328.1923462,2,6,20,15.0,0.001,257.228515458664,435.841,185.970574
B-3517,Cc1cc(C)nc(NC(=O)N[S](=O)(=O)c2ccccc2C(=O)OC3COC3)n1,-3.893,28,78.0,10.668,-0.0062186055649999,0.006089503627,-0.0701894299079999,0,14,388.2705401,4,6,24,20.0,0.001,313.3180415200291,486.36300000000006,228.32141600000003
F-1063,COC1=CC=C2C=C(C(C)C(=O)OCC(C)=O)C=CC2=C1,-4.65,21,57.0,28.145,-0.004546232107,0.006698681024,-0.061215488665,0,6,268.18013,0,4,18,20.0,0.0,245.20390485558423,459.845,170.135395
C-2239,CCCC1=C2CCCCC2=CC3=C1OC(=CC3=O)C(O)=O,-1.9,21,57.0,18.672,-0.007173853934,0.012311417487,-0.056961296449,0,8,268.18013,0,4,10,17.0,0.001,225.852722639094,426.046,171.085343
C-2293,CCCC1=C2OC(=CC(=O)C2=C(O)C3=C1CCCC3)C(O)=O,-2.68,22,60.0,12.486,-0.006110696112,0.015154502096,-0.038831120211,0,8,284.1795349,0,5,14,21.0,0.0,232.76838071571825,431.254,175.74543300000002
B-2018,COc1cc(OC)c2C(=O)C3(Oc2c1)C(C)CC(=O)C=C3OC,-3.699,23,63.0,15.104,-0.004958865796,0.006409321048,-0.0552757795859999,0,10,300.1789398,0,6,20,15.0,0.0,249.87971854381504,467.689,182.520143
I-20,c1c(Cl)ccc2Sc3ccccc3N(CCCN(C)C)c12,-5.07,21,57.0,6.973,-1.4008700000000002e-06,-0.002471069294,-0.0122913039299999,0,7,299.7136417,2,0,10,14.0,0.001,257.27573474101547,464.882,200.330336
D-1086,Cc1cc(ccc1N=Nc2ccc(cc2Cl)[N+]([O-])=O)N(CCO)CCO,-6.57,25,72.0,5.584,-0.007450582579,0.01829991361,-0.040762499758,0,10,359.6598804,3,4,25,22.0,0.001,290.85718242344467,555.11,213.888679
B-4488,COC1CC(=O)C[C@@H](C)[C@]12Oc3c(Cl)c(OC)cc(OC)c3C2=O,-4.6110000000000015,23,66.0,16.604,-0.00524163828,0.006240348879,-0.068059548816,0,14,335.63187739999995,0,6,18,12.0,0.0,267.8056481884365,480.062,196.359118
C-2564,COC(=O)C1=C(C(=CC=C1)C)[S](=O)(=O)NC(=O)NC2=NC(=NC(=N2)OCC(F)(F)F)N(C)C,-5.69,33,93.0,17.037,-0.006097607323,0.015003175898,-0.049933865646,0,26,473.279156,6,6,16,18.0,0.0,364.8013047379699,552.4159999999999,252.280966
C-2092,C1CN=C(CN(CC2=CC=CC=C2)C3=CC=CC=C3)N1,-2.6,20,54.0,10.311,-4.905052e-06,-0.007570741673,-0.022671469883,0,4,246.2026199,3,0,9,15.0,0.0,231.2315474007701,396.759,168.999443
A-209,COc1ccc(cc1)N2CCN(CC2)c3ccc(cc3)[N+]([O-])=O,-6.929013035,23,63.0,24.964,-0.004639320413,0.005108367942,-0.039545254034,0,5,294.20083470000003,3,3,24,17.0,0.001,251.434955831849,473.5580000000001,189.302551
C-1506,COC1=CC2=C([NH]C(=N2)[S](=O)CC3=C(C)C(=C(C)C=N3)OC)C=C1,-4.28,23,66.0,8.019,-0.0031131265769999,-0.001426758339,-0.050396924452,0,8,326.26562210000003,3,2,20,16.0,0.0,276.6812503760039,497.724,206.923924
B-3508,CO\N=C(/C)c1cccc(Oc2nc(OC)cc(OC)n2)c1C(=O)OC,-3.6037,26,72.0,4.331,-0.002177265121,-0.003331662127,-0.030393703666,0,11,342.1990495,3,6,19,18.0,-0.001,296.8858116663281,514.911,206.255985
C-1503,CO\N=C(C)/C1=CC=CC(=C1C(=O)OC)OC2=NC(=CC(=N2)OC)OC,-3.31,26,72.0,2.093,-0.000717288153,-0.002531421661,-0.024905032777,0,13,342.1990495,3,6,25,17.0,0.0,296.66016562349137,529.095,203.654163
B-3510,COc1cc(OC)nc(NC(=O)N[S](=O)(=O)Nc2ccccc2C(=O)C3CC3)n1,-6.3943,29,81.0,24.063,-0.006389401324,0.002013482568,-0.067219164433,0,18,402.2772433,5,6,17,19.0,-0.001,315.9604472525916,562.363,236.133349
B-3004,CC(C)Oc1cccc(NC(=O)c2ccccc2C)c1,-4.3265,20,54.0,6.805,-0.001177491423,0.0006858076089999,-0.008980160899,0,6,250.1880234,1,2,11,14.0,0.001,234.71529498785068,410.925,167.059981
F-752,CN1CCC23C=CC=CC2C1CC1=C3C(O)=C(O)C=C1,-1.72,20,54.0,11.777,-0.003449292649,0.003977369831,-0.034084293943,0,5,250.1880233,1,2,18,15.0,-0.001,218.2632657215393,411.154,169.116022
C-687,CN1CCC23C4CCC(=O)C2OC5=C(O)C=CC(=C35)CC14,-2.1,21,57.0,8.374,-0.003811464425,0.007867190936,-0.024044192138,0,6,266.1874283,1,3,17,14.0,0.001,223.919407824384,398.917,172.702121
C-1305,CN1CCC23C4OC5=C(O)C=CC(=C25)CC1C3C=CC4O,-3.15,21,57.0,7.526,-0.003858546936,0.008165037904,-0.0216011030629999,0,6,266.1874283,1,3,18,15.0,0.0,223.92474997755863,404.035,173.325041
E-970,O=C(N(CCCC1)C1)C=CC=Cc(ccc(OCO2)c23)c3,-3.46,21,57.0,2.98,-0.001909273984,0.004942996258,-0.008732806878,0,5,266.1874283,1,3,16,17.0,0.001,230.4533852254445,453.234,173.009727
D-1445,O=C(/C=C/C=C/c1ccc2OCOc2c1)N3CCCCC3,-3.853,21,57.0,2.937,-0.001907247859,0.004944554792,-0.008729921507,0,5,266.1874283,1,3,16,16.0,0.0,230.4519422169248,453.128,173.012879
B-3026,COC(=O)C(C)N(C(=O)c1occc1)c2c(C)cccc2C,-3.1173,22,60.0,11.833,-0.002313598657,0.006601272217,-0.0267102291149999,0,10,282.1868332,1,4,16,13.0,0.0,265.27505325434345,449.028,177.557192
B-2781,COc1ccc(cc1)C(C(C)[N+]([O-])=O)c2ccc(OC)cc2,-4.5446,22,60.0,13.393,-0.004614034696,0.003798534883,-0.0531972132849999,0,7,282.1868332,1,4,15,15.0,0.0,250.55511580901063,445.487,178.38888400000002
B-3185,CCOC(=O)NCCOc1ccc(Oc2ccccc2)cc1,-4.7009,22,60.0,17.975,-0.002756049439,0.00470083239,-0.026738257539,0,5,282.1868332,1,4,19,18.0,0.0,248.10865431604992,465.132,179.018963
A-5853,CCCCOC(=O)C1C(C(=O)OCCCC)C2(Cl)C(=C(Cl)C1(Cl)C2(Cl)Cl)Cl,-7.509558902999999,23,75.0,4.806,-0.002078349454,0.006281397278,-0.016372354991,0,24,480.8977555,0,4,19,12.0,0.0,344.3900171203589,594.41,256.684868
F-725,OC(CN1CCCCC1)C1=C2C=CC=CC2=C(Cl)C=C1,-1.55,19,54.0,3.882,-0.001435625775,0.000196942023,-0.011669014878,0,5,269.641556,1,1,11,11.0,0.001,231.48056530885648,414.356,177.63759199999998
F-813,CCCN1C=C(C(=O)O)C(=O)C2=C1C=C(N1CCNCC1)C(F)=C2,-3.57,24,66.0,27.957,-0.008409765499,0.011257160942,-0.111666454863,0,9,313.1992378,3,3,16,17.0,0.0,258.5585298826311,460.834,188.03487
C-923,CCN1C=C(C(O)=O)C(=O)C2=C1C=C(N3CCN(C)CC3)C(=C2)F,-1.47,24,66.0,27.455,-0.007035484477,0.010611857472,-0.085705539502,0,7,313.1992379,3,3,18,20.0,0.0,262.881754782316,461.388,190.186731
B-2896,Cc1ccc(NC(=O)NC(C)(C)c2ccccc2)cc1,-5.3495,20,54.0,10.175,-0.000120441384,-0.004849640427,-0.021199050516,0,3,248.1953216,2,1,14,16.0,-0.001,247.6835352928477,416.377,171.278725
B-2897,CN(C(=O)NC(C)(C)c1ccccc1)c2ccccc2,-3.3495,20,54.0,9.265,-5.9307307e-05,-0.004698516013,-0.014676913864,0,4,248.1953216,2,1,11,14.0,0.0,250.37710004420208,391.643,170.787658
B-347,CN(C)c1ccc(cc1)C(=O)c2ccc(cc2)N(C)C,-2.8267,20,54.0,2.452,-0.0009878179059999,-0.000649744964,-0.01218932144,0,5,248.1953216,2,1,9,15.0,0.0,239.0189770842248,422.196,169.838192
A-332,CCN(C(=O)N(CC)c1ccccc1)c2ccccc2,-3.525627796,20,54.0,8.232000000000001,-6.9075473e-05,-0.004059203442,-0.02072129693,0,2,248.1953216,2,1,13,15.0,-0.001,236.46778757993977,386.139,168.20481
C-2118,CCN(CC1=CC=NC=C1)C(=O)C(CO)C2=CC=CC=C2,-1.7,21,57.0,3.033,-0.002371165795,0.001210252876,-0.018095586766,0,4,264.1947266,2,2,13,14.0,0.0,243.00822360645856,397.221,174.349678
B-3529,COc1ccc(cc1NNC(=O)OC(C)C)c2ccccc2,-4.9025,22,60.0,8.332,-0.001017683409,0.0005063258219999,-0.017510212853,0,5,280.1941315,2,3,17,16.0,0.0,265.21662994604526,480.652,179.895962
A-1808,CCOc1cc(NC(=O)c2ccccc2)c(OCC)cc1N,-2.405757197,22,60.0,4.71,-0.002056826044,-0.000692529694,-0.022976280332,0,5,280.1941315,2,3,23,18.0,0.0,252.5213244837279,517.368,181.726935
F-1071,CCOC1=CC=C(NC(=O)NC2=CC=C(OCC)C=C2)C=C1,-4.44,22,60.0,4.348,-0.000108503626,-0.002797883141,-0.012135878154,0,7,280.1941315,2,3,12,16.0,0.0,251.4900610029826,468.145,182.417541
F-611,OCC(O)C(O)C(O)C=NN(C1=CC=CC=C1)C1=CC=CC=C1,-3.1,23,63.0,9.791,-0.0036302128259999,0.01168889162,-0.016869680504,0,8,296.1935364,2,4,13,16.0,0.0,254.3208402094896,434.56,183.873314
C-1448,CCCC(=O)OCOC(=O)C1=CN(CC)C2=C(C=CC(=N2)C)C1=O,-2.95,24,66.0,7.146,-0.002885438236,0.008808765456,-0.036701295044,0,6,312.19294130000003,2,5,21,24.0,0.0,219.0007171396642,501.86800000000005,191.711497
C-1452,CCN1C=C(C(=O)OCOC(=O)C(C)C)C(=O)C2=C1N=C(C)C=C2,-3.02,24,66.0,12.023,-0.004209930579,0.012654434301,-0.036706841149,0,9,312.19294130000003,2,5,16,15.0,0.0,272.0354415526708,480.236,190.228775
B-4470,CC(CN1c2ccccc2Sc3ccccc13)N(C)C,-4.2597,19,54.0,6.2010000000000005,-2.013412e-06,-0.003573870479,-0.009138939821,0,5,264.2607041,2,0,12,15.0,0.0,241.6325791553693,407.295,185.09354
B-4465,CN(C)CCCN1c2ccccc2Sc3ccccc13,-4.3017,19,54.0,3.855,-3.557315e-06,-0.004378423346,-0.006790294015,0,3,264.2607041,2,0,14,17.0,0.0,245.1653903698036,439.985,186.650553
G-1041,CCN2c1cc(N(C)C)cc(C)c1NC(=O)c3cccnc23 ,-4.871,22,60.0,3.694,-0.002187045739,-0.0017870717689999,-0.03194708871,0,7,276.20872810000003,4,1,13,15.0,0.0,249.665404704332,429.42800000000005,181.22536
F-1,NC(=O)C1=CN=C2N1CCC1=C(C=CC=C1)C21CCNCC1,-2.43,22,60.0,5.853,-0.000820257005,-0.000722413533,-0.010463690397,0,2,276.20872810000003,4,1,18,15.0,0.001,244.574042988472,409.646,179.41546100000002
C-2339,CCNC(=O)OC1=C(O)C(=CC(=C1)\C=C(C#N)/C(=O)N(CC)CC)[N+]([O-])=O,-3.18,27,75.0,8.63,-0.00726697669,0.015321902079,-0.04286619074,0,14,356.2057527,4,6,29,20.0,0.0,298.94483809573364,568.849,210.829441
B-291,Cc1cc2N=C3C(=O)NC(=O)N=C3N(CC(O)C(O)C(O)CO)c2cc1C,-3.6478,27,75.0,24.745,-0.006787472509,0.018492438923,-0.072044494168,0,14,356.2057527,4,6,21,18.0,-0.001,296.7346187270365,444.811,206.444084
A-1916,Cc1cc(Cc2cc(C)c(O)c(C)c2)cc(C)c1O,-3.4088248510000003,19,51.0,2.12,-0.002865718155,0.00538682481,-0.020210074874,0,8,236.1813201,0,2,12,13.0,0.0,226.71825976461292,425.375,157.154448
B-1799,CC(C)CC(c1ccc(O)cc1)c2ccc(O)cc2,-3.3674,19,51.0,0.35,-0.003299353013,0.0067458399049999,-0.020146053881,0,5,236.1813201,0,2,18,13.0,-0.001,228.46763503376695,427.274,157.92021
F-996,COC1=CC=C2C=C(C(C)C(=O)OC(C)C)C=CC2=C1,-5.48,20,54.0,14.193,-0.001958854763,0.001365273261,-0.027524025705,0,6,252.1807251,0,3,12,13.0,0.0,238.87807924908225,413.696,167.373459
F-1054,CCCOC(=O)C(C)C1=CC2=CC=C(OC)C=C2C=C1,-5.82,20,54.0,27.38,-0.001665515944,-0.001062369043,-0.075597424347,0,6,252.1807251,0,3,14,12.0,0.0,242.14736143966576,440.983,169.060002
F-1059,COC1=CC=C2C=C(C(C)C(=O)OCC(C)O)C=CC2=C1,-3.31,21,57.0,36.173,-0.005641493081,0.007026499958,-0.078287805749,0,5,268.18013,0,4,16,16.0,0.0,250.38903885270284,471.021,172.498604
F-1060,COC1=CC2=CC=C(C(C)C(=O)OCCCO)C=C2C=C1,-3.4,21,57.0,7.37,-0.001378859961,0.004795173737,-0.011205586036,0,5,268.18013,0,4,16,13.0,0.0,248.17400995575184,442.071,171.373358
F-1065,COC1=CC=C2C=C(C(C)C(=O)OCC(O)CO)C=CC2=C1,-2.62,22,60.0,11.726,-0.003483299539,0.0116038943329999,-0.013415725386,0,8,284.1795349,0,5,14,13.0,0.0,263.52525601594124,475.237,177.56395700000002
C-1355,CC1C(SC(=O)N1C(=O)NC2CCCCC2)C3=CC=C(Cl)C=C3,-5.85,22,63.0,9.402,-0.001729271426,0.00351568917,-0.01184512846,0,9,331.7124515,2,2,12,14.0,-0.001,270.88452272175016,481.274,206.154275
B-3247,C[C@H]1C(SC(=O)N1C(=O)NC2CCCCC2)c3ccc(Cl)cc3,-5.8487,22,63.0,10.382,-0.002669852985,0.006294653985,-0.015091096515,0,10,331.7124515,2,2,10,13.0,0.0,271.0358322852936,470.908,206.115901
B-2032,Cc1cc(ccc1N=Nc2ccccc2)N(CCO)CCO,-4.1254,22,60.0,5.539,-0.003319471685,0.006167476689,-0.019392107145,0,3,278.2014298,3,2,20,19.0,0.0,254.4695543855096,451.673,182.295849
I-34,CN(C)CCOC(c1ccccc1)c1ccccc1,-2.95,19,51.0,5.24,-7.9742549e-05,-0.004155452978,-0.012454800559,0,3,234.1886184,1,1,12,11.0,0.0,227.8091525026768,407.08,162.579092
B-2456,CCN(CC)C(=O)C(C)Oc1cccc2ccccc12,-3.5702,20,54.0,9.29,-0.001513681938,0.000801263817,-0.016026611254,0,5,250.1880234,1,2,14,11.0,0.0,242.1667052684414,396.793,168.767644
C-2154,CCC1=CC=CC2=C1[NH]C3=C2CCOC3(CC)CC(O)=O,-3.31,21,57.0,12.083,-0.001466148808,0.004190122931,-0.017879722517,0,7,266.1874283,1,3,19,14.0,0.001,236.2236982749004,414.447,172.244305
E-486,COC(=O)C1C(CC2CCC1N2C)OC(=O)c3ccccc3,-2.23,22,60.0,9.704,-0.001972143307,0.006551769814,-0.016226721263,0,8,282.1868332,1,4,20,19.0,0.0,255.066892827154,426.837,176.63501499999998
B-4155,COC(=O)[C@H]1[C@H](CC2CCC1N2C)OC(=O)c3ccccc3,-2.2267,22,60.0,5.192,-0.000402394941,0.000936803456,-0.011774966582,0,6,282.1868332,1,4,22,15.0,0.0,249.3398321110648,439.074,179.494607
C-553,CN1C2CC(CC1C3OC23)OC(=O)C(CO)C4=CC=CC=C4,-1.24,22,60.0,14.302,-0.001700302028,0.0074182234349999,-0.01954852666,0,7,282.1868332,1,4,18,15.0,0.0,235.6418018962389,446.486,178.40915800000002
D-1331,CN1[C@@H]2CC(C[C@H]1C3OC23)OC(=O)[C@H](CO)c4ccccc4,-0.504,22,60.0,6.332999999999999,-0.000427324898,0.005596386728,-0.009806051586,0,5,282.1868332,1,4,20,15.0,0.0,244.8314242734415,442.98,178.539828
B-3485,CC1(C)CCC(Cc2ccc(Cl)cc2)C1(O)Cn3cncn3,-4.3288,21,60.0,9.874,-0.000269695373,-0.000281708081,-0.019463016155,0,7,297.6549624,3,1,10,15.0,0.0,254.3100477950988,488.013,192.393061
B-3051,C[C@H](O)C(=O)Nc1c(I)c(C(=O)NC(CO)CO)c(I)c(C(=O)NC(CO)CO)c1I,-0.7443,30,87.0,11.302,-0.007891377179,0.026321061649,-0.0344510521229999,0,20,754.911275,3,8,28,19.0,-0.001,393.831026110424,620.311,308.951926
F-819,CN(C)CCOC(C)(C1=CC=CC=C1)C1=CC=CC=N1,-2.82,20,54.0,8.854,-8.5750564e-05,-0.004504230699,-0.010270222634,0,5,248.1953216,2,1,13,17.0,0.0,239.2777859151517,421.115,166.015227
A-4776,C(CNc1cccc2ccccc12)CN3CCOCC3,-2.702803349,20,54.0,2.738,-0.0001404169559999,-0.0033682571539999,-0.016113501279,0,1,248.1953216,2,1,16,14.0,-0.001,225.0908450697385,432.899,171.07650800000002
F-905,CC(C)CCNCC1=CC=CC(C(=O)C2=CSC(S(N)(=O)=O)=C2)=C1,-1.5,23,66.0,9.451,-0.011545978289,0.010452210021,-0.055812517982,0,10,344.3237063,2,3,14,18.0,0.001,291.78504396234433,515.864,218.70756
B-3189,CC(C)=CC1C(C(=O)OCN2C(=O)CN(CC#C)C2=O)C1(C)C,-3.5321,23,63.0,6.955,-0.001518052249,0.004509891861,-0.036944029082,0,8,296.1935364,2,4,21,18.0,0.0,279.55325804187896,502.024,186.540989
F-906,CC(C)CN(C)CC1=C(O)C=CC(C(=O)C2=CSC(S(N)(=O)=O)=C2)=C1,-1.42,23,69.0,6.126,-0.013595586524,0.017746794763,-0.064245681067,0,11,360.3231112,1,4,20,20.0,0.0,322.0806040991479,596.107,227.352887
F-1179,CC(=O)OC1C2C(CC(C)C3C=CC(=O)C31C)OC(=O)C2C,-2.19,22,60.0,7.353,-0.0029786111839999,0.013849289217,-0.0213691373389999,0,10,284.1795349,0,5,13,15.0,-0.001,253.1367224252737,441.981,178.420863
C-762,CC(C)OC(=O)C1(CCCCCC1)[S](=O)(=O)C2=CC=C(Cl)C=C2,-5.52,22,63.0,11.546,-0.006729668707,0.008435172624,-0.034516666375,0,12,335.697855,0,4,13,14.0,0.0,277.75106583021886,444.99300000000005,199.025854
F-1187,CC(C)CC(N)C(=O)NC(CC1=CNC2=C1C=CC=C2)C(=O)O,-1.12,23,63.0,10.545,-0.000905343645,-0.001266606965,-0.019881829212,0,6,294.20083470000003,3,3,26,18.0,0.0,276.66135875334845,481.969,186.453877
C-1254,CN1CCC23CCCCC2C1CC4=C3C=C(O)C=C4,-2.72,19,51.0,7.423999999999999,-0.002371200909,0.00025225063,-0.0148563323689999,0,3,234.1886184,1,1,18,15.0,0.0,221.3885788345908,363.76,163.641381
C-519,CN1C2CCC1CC(C2)OC(=O)C(CO)C3=CC=CC=C3,-1.91,21,57.0,2.678,-0.00175371717,0.004076026955,-0.009798992698,0,5,266.1874283,1,3,18,17.0,0.0,234.1816565002649,436.615,173.508753
I-11,CN1[C@H]2CC[C@@H]1C[C@@H](C2)OC(=O)C(CO)C1=CC=CC=C1,-2.0,21,57.0,2.68,-0.001756120185,0.0040855924349999,-0.009779090856,0,5,266.1874283,1,3,17,15.0,0.0,234.1768435286352,436.465,173.513341
B-450,CN1[C@@H]2CC[C@H]1CC(C2)OC(=O)[C@H](CO)c3ccccc3,-1.91,21,57.0,6.112,-0.000333531039,0.002356385507,-0.005670296834,0,5,266.1874283,1,3,13,18.0,0.0,235.5038995775532,434.802,174.250613
C-1349,CC(C)N(C(C)C)C(=O)COC(=O)C1=CC=CC=C1OC(C)=O,-3.25,23,63.0,8.818,-0.003074084753,0.005561151065,-0.025692582697,0,11,298.1862381,1,5,17,16.0,0.001,270.0508731707102,466.092,181.818019
C-1343,CCCN(CCC)C(=O)COC(=O)C1=CC=CC=C1OC(C)=O,-2.65,23,63.0,9.969,-0.003031357727,0.005724961422,-0.029231125245,0,11,298.1862381,1,5,20,14.0,0.0,265.3324460978933,451.505,185.013137
B-3534,CC(C)OC(=O)C1(CCCCCC1)[S](=O)(=O)c2ccc(cc2)[N+]([O-])=O,-5.0706,25,69.0,3.912,-0.0102645816429999,0.016924204953,-0.04478134832,0,13,346.2504304,1,6,16,16.0,0.0,284.86212037280086,453.024,201.212939
B-2130,CN1C2CCC1CC(C2)OC(=O)C(CO[S](O)(=O)=O)c3ccccc3,-1.5675,25,69.0,5.5520000000000005,-0.011176169587,0.009622220864,-0.031798389258,0,14,346.2504304,1,6,14,15.0,0.0,278.7228224631939,471.958,209.868437
B-3302,CCc1cccc(CC)c1N(COC\C=C/C)C(=O)CCl,-4.0287,21,57.0,8.221,-0.001657260786,0.000894210546,-0.038680828029,0,7,285.6409609,1,2,16,16.0,0.0,259.3212791177553,477.552,185.391817
C-2341,CCCCC(=O)OCSC1=NC=NC2=C1N=C[N]2COC(=O)CCCC,-4.33,26,72.0,3.594,-0.000865451263,0.003499413431,-0.009251963229,0,10,356.2717302,4,4,25,23.0,0.0,320.8817228029567,586.976,222.849731
C-1444,CC(C)(C)C(=O)OCN1C=NC2=C(C=N[N]2COC(=O)C(C)(C)C)C1=O,-4.26,26,72.0,2.513,-0.000480585777,-0.000712628008,-0.011494337989,0,10,340.2063477,4,5,28,19.0,0.0,323.0629892648992,508.96,200.179853
C-1435,CC(C)(C)C(=O)OC[N]1C=C2C(=O)N(COC(=O)C(C)(C)C)C=NC2=N1,-3.91,26,72.0,37.221,-0.0031047870449999,0.00721075946,-0.109207051193,0,13,340.2063477,4,5,25,16.0,0.0,304.5412419157064,549.393,198.755021
A-1120,CC(=O)c1cc(cc2c1CCC2(C)C)C(C)(C)C,-4.870866208,18,48.0,7.15,-7.527664300000001e-05,-0.0019390224419999,-0.0119716938559999,0,5,220.1819152,0,1,11,13.0,0.0,229.7162134351141,394.751,152.068775
D-1724,COC(=O)C1=CO[C@@H](O[C@@H]2O[C@H](CO)[C@@H](O)[C@H](O)[C@H]2O)[C@@H]3[C@@H](C)CC(=O)[C@H]13,-0.265,27,75.0,10.077,-0.004665949854,0.026874389497,-0.021139335389,0,17,364.1765595,0,10,26,18.0,0.0,289.37819717661165,516.193,197.685183
A-188,CCCCCCCCCC(=O)Oc1ccc(cc1)C(O)=O,-5.42454755,21,57.0,22.322,-0.006003612889,0.010267603824,-0.060139408228,0,5,268.18013,0,4,11,17.0,0.0,240.2244447872772,488.854,172.197034