Name,SMILES,Solubility,AtomNum,DegFreedom,Dipole,Ghb,Gsasa,Gsolv,HNum,LP,MolWt,NNum,ONum,PiCenters,PiDeloc,Quadrupole,Volume,SASA,Polarizabilty
B-2669,CCO[P]([O-])(=O)C(N)=O,0.7693,9,21.0,3.653,-0.007278331063,0.015536734131,-0.0700856441629999,0,8,145.0102926,1,4,13,9.0,0.001,111.1825148893657,267.875,81.016286
B-1591,OC(=O)CNC[P](O)(O)=O,-1.2069,10,24.0,27.931,-0.297026431573,0.024095104411,-0.490679499264,0,10,161.00969750000002,1,5,11,6.0,0.0,114.2319657642884,276.933,81.84541800000001
A-3965,N[C@@H](CO[P](O)(O)=O)C(O)=O,-0.814940872,11,27.0,7.26,-0.05486162047,0.017442853269,-0.063242133438,0,9,177.0091024,1,6,18,10.0,0.0,129.2005115993375,299.862,87.834763
G-115,CCCO,0.62,4,6.0,2.495,-0.000248476915,0.004241308527,0.00166346247,0,2,52.0316126,0,1,3,3.0,0.0,52.59324656972456,170.40599999999998,33.30695
G-258,CC(C)O,0.43,4,6.0,2.489,-0.000249613743,0.00424218239,0.001667314464,0,2,52.0316126,0,1,3,2.0,0.001,61.518238642025736,170.418,33.306319
B-1121,CCOC,-0.0799,4,6.0,2.998,-8.8060609e-05,-0.001815733941,-0.007749409074,0,2,52.0316126,0,1,3,4.0,0.0,55.41721264864372,175.324,34.794226
B-66,CC(O)CO,1.1186,5,9.0,2.815,-0.000909486158,0.008578971808,0.004074754848,0,3,68.0310175,0,2,7,4.0,0.0,62.18834584680901,181.048,37.667934
B-4559,COCOC,0.506,5,9.0,1.556,-0.000560210564,0.002459202782,-0.003807598334,0,3,68.0310175,0,2,7,4.0,0.0,66.99461413691563,187.241,37.895058
B-586,COCCO,1.1186,5,9.0,0.562,-0.000770876538,0.008925612659,0.005527486527,0,3,68.0310175,0,2,7,4.0,0.001,63.48859299730602,180.808,36.634555
A-5368,OCCCO,1.118643879,5,9.0,0.016,-0.001381172078,0.010802205332,0.005823253041,0,2,68.0310175,0,2,6,3.0,0.001,57.85613435538989,183.727,37.046167
A-1896,OCC(O)CO,1.035768663,6,12.0,5.297000000000001,-0.0043635628899999,0.016337055645,-0.0132695498289999,0,5,84.0304225,0,3,6,4.0,0.0,65.61065530838135,198.072,41.725959
D-1355,CCO[S](C)(=O)=O,0.402,7,15.0,7.009,-0.009860571171,0.008925204261,-0.030552198757,0,7,116.0952099,0,3,7,4.0,0.0,100.74346940877312,243.943,65.748475
B-87,OCC(S)CS,-0.1547,6,12.0,1.3630000000000002,-0.0006965771799999,0.011132538444,0.008347155979,0,5,116.1611874,0,1,8,6.0,0.0,92.45108267796158,237.973,71.227845
B-510,CCCS,-1.6021,4,6.0,4.243,-3.1170477e-05,0.001687418677,-0.001154762558,0,2,68.09699509999999,0,0,3,3.0,0.0,65.21440720414141,194.555,48.253682
A-3393,CCSC,-1.056973282,4,6.0,3.982,-0.000143434116,0.001019992794,-0.002126341089,0,3,68.09699509999999,0,0,4,3.0,0.0,69.22053793204257,187.182,48.133319
B-4260,CCCN,1.2283,4,6.0,1.72,-2.384727e-06,-0.004409821989,-0.005080054985,0,2,50.0389109,1,0,6,3.0,0.0,55.67290743373341,172.963,34.660355
B-181,CC(C)N,1.2283,4,6.0,1.721,-2.385006e-06,-0.004410059417,-0.005080988874,0,2,50.0389109,1,0,6,5.0,0.001,65.13061273203851,172.97099999999998,34.660315000000004
B-3665,CN(C)C,1.1777,4,6.0,0.974,-3.68095e-07,-0.003475427799,-0.003241128094,0,3,50.0389109,1,0,1,2.0,-0.001,64.902632717887,160.77,32.830689
B-1988,CN(C)C(N)=N,-1.7306,6,12.0,1.822,-6.581986000000001e-06,-0.00593564373,-0.010634574066,0,2,78.0523173,3,0,10,6.0,0.001,86.02222752356907,213.248,48.58498
A-4994,NNC(=O)C(N)CO,0.510462812,8,18.0,2.557,-0.001521247264,0.002094742559,-0.006040048131,0,6,110.0511272,3,2,7,5.0,-0.001,97.63236814020658,221.452,56.773634
B-1141,NC(N)=NCC[S](O)(=O)=O,-0.6321,10,24.0,11.111,-0.0141412413999999,0.009468324388,-0.037366550014,0,12,158.1153195,3,3,7,6.0,0.0,116.46022585898304,282.308,83.607052
B-249,CC(O)CN,1.1243,5,9.0,1.856,-0.000538508291,0.002106288429,-0.002158716813,0,2,66.03831579999999,1,1,6,4.0,0.0,69.95248402940487,187.316,38.586613
A-3006,CNCCO,1.124296456,5,9.0,0.111,-0.000894942857,0.003671120548,-0.001157716884,0,2,66.03831579999999,1,1,9,4.0,-0.001,62.456352754736926,190.573,40.089545
A-5329,NCC(O)CO,1.040433953,6,12.0,3.949,-0.002268308506,0.008116027647,-0.007300756575,0,5,82.0377208,1,2,7,5.0,0.001,69.06608031251821,200.463,43.251142
A-5115,NC(CO)CO,0.974427117,6,12.0,3.983,-0.000398870696,0.0086053064859999,-0.001846000808,0,4,82.0377208,1,2,6,4.0,0.0,69.04791965711311,199.93,43.202318
A-5268,CNCC[S]([O-])(=O)=O,0.19068814,8,18.0,8.687999999999999,-0.016202538389,0.013571905194,-0.081539076693,0,10,130.10191310000002,1,3,6,2.0,0.0,95.94409515114214,254.602,74.179905
A-5391,CO[P](C)(=O)OC,-0.093687784,7,15.0,3.025,-0.001908271642,0.004110700714,-0.003647547377,0,7,115.0041845,0,3,11,8.0,0.0,100.36427901532848,266.084,69.727976
B-4164,CO[P](=O)(OC)OC,0.5526,8,18.0,2.32,-0.002321844579,0.005002308478,-0.002336833337,0,7,131.0035894,0,4,14,7.0,0.0,110.4514844423425,291.05,74.50773199999999
B-58,OCC(O)CO[P](O)(O)=O,0.7643,10,24.0,6.097,-0.034203426996,0.0266258752889999,-0.032011707122,0,10,163.0023992,0,6,11,8.0,0.0,112.02956685049836,264.931,77.900729
B-3308,OC(=O)C(Br)=C(Cl)Br,-1.0071,8,18.0,6.555,-0.00331243604,0.006909297727,-0.020102765723,0,13,263.2910107,0,2,6,3.0,0.0,117.77805434487176,272.251,95.317618
B-3309,OC(=O)C(Cl)=C(Br)Br,-0.6873,8,18.0,4.4430000000000005,-0.003270702175,0.0070166835959999,-0.018149356873,0,13,263.2910107,0,2,6,4.0,0.0,117.7704011835204,272.749,95.276829
B-3181,OC(=O)C(Br)=C(Br)I,-1.0197,8,18.0,5.191,-0.003674178594,0.003443647254,-0.0256660119529999,0,13,354.742545,0,2,6,3.0,0.0,128.60611695346677,288.313,113.026515
B-3180,OC(=O)C(Br)=C(Br)Br,-1.3593,8,18.0,4.461,-0.0033789399709999,0.005509269318,-0.021659785,0,13,307.7416009,0,2,6,3.0,0.0,120.20987016235064,278.778,102.08661
B-3281,OC(=O)C(I)=C(Br)I,-1.2891,8,18.0,5.017,-0.003610610206,0.001511805007,-0.027772401903,0,13,401.7434891,0,2,6,3.0,0.0,137.05308384307006,298.539,124.274281
A-1182,ClN1C(=O)[N-]C(=O)N(Cl)C1=O,-0.895160011,11,27.0,2.732,-0.006443668839,0.01318308713,-0.0857279359579999,0,13,196.9564073,3,3,7,6.0,0.0,126.19193245092868,279.813,95.201426
A-5540,Clc1ccc(Cl)c(N\N=C2/C(=O)C(=Cc3ccccc23)C(=O)Nc4cc(Cl)c(NC(=O)C5=Cc6ccccc6C(=N/Nc7cc(Cl)ccc7Cl)\C5=O)cc4Cl)c1,-8.150868125,52,162.0,20.177,-0.0058667288729999,0.005070313961,-0.088860544589,0,26,841.1849004000001,6,4,37,36.0,0.0,650.6000759429803,977.781,504.764422