Name,SMILES,Solubility,AtomNum,DegFreedom,Dipole,Ghb,Gsasa,Gsolv,HNum,LP,MolWt,NNum,ONum,PiCenters,PiDeloc,Quadrupole,Volume,SASA,Polarizabilty
A-2255,Cc1cc(Cc2cc(C)cc(C3CCCCC3)c2O)c(O)c(c1)C4CCCCC4,-6.979034273,29,81.0,8.304,-0.001201683138,-0.002235113555,-0.0202005428459999,0,5,356.2886791,0,2,13,17.0,0.0,331.381661908723,557.8380000000001,248.510636
C-812,CCCCC(=O)OC1(C(C)CC2C3CCC4=CC(=O)C=CC4(C)C3(F)C(O)CC12C)C(=O)CO,-4.71,34,96.0,9.824,-0.005344471985,0.014983751731,-0.034597824548,0,14,439.284702,0,6,25,25.0,-0.001,388.47312947730535,595.15,269.730212
B-4512,CCCCC(=O)O[C@@]1([C@@H](C)C[C@H]2[C@@H]3CCC4=CC(=O)C=C[C@]4(C)[C@@]3(F)[C@@H](O)C[C@]12C)C(=O)CO,-4.7101,34,96.0,9.144,-0.00408683638,0.015493555507,-0.029597083964,0,17,439.284702,0,6,23,21.0,0.0,377.7910042412705,586.298,266.454451
I-93,COc1ccc(CCN(C)CCCC(C#N)(C(C)C)c2ccc(OC)c(OC)c2)cc1OC,-3.98,33,93.0,4.664,-0.000102821708,-0.010615369994,-0.0376085176789999,0,7,416.3008954,2,4,27,25.0,0.0,392.4889090588121,697.059,276.464451
C-1969,CCCCCCC(=O)OC1(CCC2C3CCC4=CC(=O)CCC4C3CCC12C)C#C,-6.89,30,84.0,11.2,-0.002492491883,0.002547693134,-0.027823777211,0,5,372.2880841,0,3,18,18.0,0.0,346.70977416837167,580.714,248.053714
B-1040,CC(C)(C)CC(=O)OCC(=O)C1(O)CCC2C3CCC4=CC(=O)CCC4(C)C3C(O)CC12C,-5.5111,33,93.0,11.745,-0.006655386512,0.0170682417229999,-0.048715204549,0,15,420.2862988,0,6,19,23.0,0.001,393.2261281449767,605.321,258.848274
A-5225,CC(C)(C)CC(C)(C)c1ccc(OCCOCC[N+](C)(C)Cc2ccccc2)cc1,0.072909649,30,84.0,15.345,-3.7404092e-05,-0.0046235281679999,-0.086592764348,0,4,370.2953823,1,2,24,23.0,0.0,383.5607114487685,655.25,249.382459
C-1785,CC1CCC2(OC1)OC3CC4C5CC=C6CC(O)CCC6(C)C5CCC4(C)C3C2C,-7.32,30,84.0,5.8660000000000005,-0.0035670931819999,0.007331136352,-0.018619747278,0,7,372.2880841,0,3,17,19.0,0.0,339.41750644919733,582.974,256.07166800000005
B-1045,C[C@@H]1CC[C@@]2(OC1)O[C@H]3C[C@H]4[C@@H]5CC=C6C[C@@H](O)CC[C@]6(C)[C@H]5CC[C@]4(C)[C@H]3[C@@H]2C,-7.3166,30,84.0,5.848,-0.003565368787,0.0073304974639999,-0.01861543845,0,7,372.2880841,0,3,17,18.0,0.0,339.3406817363341,582.941,256.072613
G-613,C1C(O)CCC2(C)CC3CCC4(C)C5(C)CC6OCC(C)CC6OC5CC4C3C=C21,-7.32,30,84.0,7.89,-0.002966533999,0.004072570463,-0.019256275059,0,7,372.2880841,0,3,17,20.0,0.001,351.0177862966749,533.43,248.688347
C-1924,CCCCCCCCC(=O)OC1CCC2C3CCC4=CC(=O)CCC4C3CCC12C,-5.72,30,84.0,18.073,-0.00281755746,0.003379743753,-0.033333252387,0,5,372.2880841,0,3,14,21.0,0.0,346.48633787346085,603.0409999999999,254.830856
H-81,CC(C)CCCC(C)C1CCC2C3CC=C4CC(O)CCC4(C)C3CCC12C,-7.0,28,78.0,5.131,-0.002350763523,-0.001245459588,-0.030020776063,0,4,340.2892742,0,1,15,20.0,0.0,350.7760606831026,533.563,245.699048
A-5736,CC(C)CCC[C@@H](C)[C@H]1CC[C@H]2[C@@H]3CC=C4C[C@@H](O)CC[C@]4(C)[C@H]3CC[C@]12C,-7.100195364,28,78.0,2.364,-0.002523602972,-0.001556894169,-0.024621455791,0,5,340.2892742,0,1,12,19.0,0.0,341.0025414686075,556.126,240.509183
A-2694,CCCCCCC(=O)OCC(CC)(COC(=O)CCCCCC)COC(=O)CCCCCC,-6.97376589,33,93.0,21.216,-0.0029272241619999,0.006323852611,-0.050560599342,0,12,420.2862988,0,6,18,21.0,0.001,404.7530206047359,755.64,276.596553
A-2690,CCCCC(CC)C(=O)OCC(COC(=O)C(CC)CCCC)OC(=O)C(CC)CCCC,-6.97376589,33,93.0,9.532,-0.000984030215,-0.001982367174,-0.044914134483,0,9,420.2862988,0,6,26,23.0,0.0,395.1937156260845,712.0060000000001,277.306147
A-2658,CCCCCCCCCCCCCCCCCCCCCC(=O)NCCCN(C)C,-6.628141567,30,84.0,14.334,-0.003636275246,-0.0050992321169999,-0.046578741337,0,5,368.3026806,2,1,9,25.0,0.001,366.26089014448286,768.015,262.759211
A-481,CCCCCCCC/C=C/CCCCCCCCNCCCNCCCNCCCN,-3.836075758,31,87.0,45.523,-1.0519091e-05,-0.0144802942889999,-0.059559420873,0,2,380.3166821,4,0,12,27.0,0.001,373.14157814321976,793.993,271.97822
A-2790,O=C1c2ccccc2C(=O)c3c4Nc5ccc6C(=O)c7ccccc7C(=O)c6c5Nc4ccc13,-7.946874563,34,96.0,1.873,-0.004663744151,0.00911673929,-0.025345566665,0,10,428.3116313,2,4,16,24.0,0.0,347.15782281798266,553.994,280.056023
A-3410,Nc1c2C(=O)c3ccccc3C(=O)c2c(cc1[S]([O-])(=O)=O)c4cc(c(N)c5C(=O)c6ccccc6C(=O)c45)[S]([O-])(=O)=O,-2.030180053,42,120.0,14.601,-0.024212099735,0.025237046199,-0.254258869856,0,26,588.4376356,2,10,25,26.0,0.0,451.8256323905728,642.862,358.110708
A-5792,Nc1ccc(c2ccc(N)c3C(=O)c4ccccc4C(=O)c23)c5C(=O)c6ccccc6C(=O)c15,-6.293710562999999,34,96.0,1.694,-0.001815732514,0.000578821094,-0.023048461425,0,8,428.3116313,2,4,20,22.0,0.0,355.774363904481,531.013,280.253966
A-5675,COc1ccc(cc1)\C=C/2N=C(OC2=O)c3ccc(cc3)C4=NC(=C/c5ccc(OC)cc5)/C(=O)O4,-6.983571154,36,102.0,12.709,-0.005451031195,0.005214835303,-0.052040974769,0,10,460.3104411000001,2,6,35,23.0,0.0,386.3857846508988,719.6030000000001,293.799675
A-4282,[O-][S](=O)(=O)c1ccccc1\C=C/c2ccc(cc2)c3ccc(cc3)\C=C/c4ccccc4[S]([O-])(=O)=O,-1.504668533,36,102.0,4.428,-0.0236415100659999,0.016847519613,-0.196258359712,0,15,496.4266095,0,6,18,24.0,0.0,403.0892707766896,691.033,320.747501
A-5997,Cc1ccc(Nc2nc(Nc3ccc(C)cc3)c(C#N)c(C)c2N=Nc4ccccc4C(F)(F)F)cc1,-7.717157144,37,105.0,10.827,-0.000218053111,-0.005871394949,-0.0270767933009999,0,14,477.3360339,6,0,26,20.0,0.001,418.85868124073767,641.644,298.63167200000004
A-5026,CCOC(=O)C1=C(COCCN2C(=O)c3ccccc3C2=O)NC(=C(C1c4ccccc4Cl)C(=O)OC)C,-4.501126952,37,108.0,4.458,-0.004643044957,0.009886791808,-0.036648300303,0,18,511.7627836,2,7,29,24.0,0.0,435.5768743063044,660.362,310.356618
A-2131,CC(c1ccccc1)c2ccc(Nc3ccc(cc3)C(C)c4ccccc4)cc2,-5.964168762000001,29,81.0,2.212,-1.274684e-06,-0.009256201878,-0.0129165001689999,0,0,350.30730839999995,1,0,18,23.0,0.0,350.83672554209005,590.819,254.466991
A-3278,Cn1c2ccccc2c(C=CC3=[N+](C)c4ccccc4C3(C)C)c1c5ccccc5,-1.743927996,30,84.0,2.9730000000000003,-1.10854e-06,-0.007904266585,-0.079554011683,0,2,364.3140116,2,0,16,22.0,0.0,348.8290272632512,542.485,261.199086
A-3523,CCOc1cccc2C(=O)c3c(Nc4ccccc4[S]([O-])(=O)=O)ccc(NC5CCCCC5)c3C(=O)c12,-1.987836786,37,105.0,16.070999999999998,-0.015066361085,0.014925058279,-0.091973892474,0,16,492.3752285,2,6,19,24.0,0.0,403.7415894236992,588.311,309.22479100000004
A-5372,COCCOCCOc1cc(Nc2c(C)cc(C)c(c2C)[S]([O-])(=O)=O)c3C(=O)c4ccccc4C(=O)c3c1N,0.239123102,39,111.0,25.843000000000004,-0.0112221414369999,0.011877007841,-0.1229046307939999,0,18,524.3740384,2,8,28,25.0,0.0,451.0500440093042,615.731,326.912061
A-2282,COc1ccc(cc1O)C2=CC(=O)c3c(O)cc(O[C@@H]4O[C@H](CO[C@@H]5O[C@@H](C)[C@H](O)[C@@H](O)[C@H]5O)[C@@H](O)[C@H](O)[C@H]4O)cc3O2,-7.505541952000001,43,123.0,17.982,-0.010548079783,0.036829457171,-0.0898631632579999,0,24,576.291679,0,15,30,31.0,0.001,446.2766507611485,703.43,321.193915
A-675,COc1ccc(cc1O)[C@@H]2CC(=O)c3c(O)cc(O[C@@H]4O[C@H](CO[C@@H]5O[C@@H](C)[C@H](O)[C@@H](O)[C@H]5O)[C@@H](O)[C@H](O)[C@H]4O)cc3O2,-5.010485646,43,123.0,24.921,-0.010647354205,0.036863502064,-0.095667664296,0,24,576.291679,0,15,29,28.0,0.0,446.3354881535365,703.72,321.201311
A-1092,COc1ccc(cc1O)[C@@H]2CC(=O)c3c(O)cc(O[C@@H]4O[C@H](CO)[C@@H](O)[C@H](O)[C@H]4O[C@@H]5O[C@@H](C)[C@H](O)[C@@H](O)[C@H]5O)cc3O2,-5.1858488330000005,43,123.0,24.004,-0.012518648969,0.03959566877,-0.098333747026,0,23,576.291679,0,15,33,35.0,-0.001,432.99148159036895,740.84,321.58903
C-779,CC12CCC3C(CCC4=CC(=O)CCC34C)C1CCC2OC(=O)CCC5=CC=CC=C5,-5.27,31,87.0,2.513,-0.003810375794,0.003196309856,-0.027051714485,0,7,384.29882,0,3,17,19.0,0.0,356.03011037011765,580.941,253.454639
H-25,CCC(=O)OCC(=O)C1(OC(=O)CC)C(C)CC2C3CCC4=CC(=O)C=CC4(C)C3(F)C(O)CC21C,-3.77,36,102.0,10.998,-0.004246104207,0.016905396737,-0.03578999705,0,16,467.2948428,0,7,24,27.0,0.0,413.0894805152332,621.039,281.713432
C-2552,CC1=CC=C(C=C1)C(=O)NC(CC2=CC=CC=C2)C(O)C(=O)N3CSC(C)(C)C3C(=O)NC(C)(C)C,-4.11,35,102.0,32.593,-0.004267949565,0.001041317169,-0.0905693558149999,0,14,474.3831219,3,4,21,21.0,0.0,444.0839546080861,624.255,308.11783
C-2550,CC(C)(C)NC(=O)C1N(CSC1(C)C)C(=O)C(O)C(CC2=CC=CC=C2)NC(=O)CC3=CC=CC=C3,-3.72,35,102.0,4.506,-0.003136718676,0.005309576088,-0.0310651001759999,0,11,474.3831219,3,4,30,29.0,0.0,440.97813526132734,661.683,306.835983
C-2562,COC1=CC=C(C=C1)C(=O)NC(CC2=CC=CC=C2)C(O)C(=O)N3CSC(C)(C)C3C(=O)NC(C)(C)C,-4.11,36,105.0,32.949,-0.004739085893,0.005622978643,-0.09635656591,0,15,490.3825268,3,5,23,24.0,-0.001,462.56907751268335,634.31,315.974788
C-2558,CC(C)(C)NC(=O)C1N(CSC1(C)C)C(=O)C(O)C(CC2=CC=CC=C2)NC(=O)COC3=CC=CC=C3,-3.83,36,105.0,20.095,-0.0033955114,0.004630653898,-0.048171985695,0,15,490.3825268,3,5,24,21.0,-0.001,460.7339019925079,660.75,311.745467
A-3374,OCCOCCOCCCNc1ccc(NCCCOCCOCCO)c2C(=O)c3ccccc3C(=O)c12,0.057188696,38,108.0,6.037999999999999,-0.006986569789,0.016136488639,-0.059723969495,0,10,492.309251,2,8,33,29.0,0.001,411.71679141159126,752.701,302.824055
A-2606,CCOc1ccccc1NC(=O)C(=O)Nc2ccc(CCCCCCCCCC(C)C)cc2,-6.09944947,33,93.0,14.92,-0.001008663693,-0.002057820906,-0.020913866948,0,5,412.3122264,2,3,20,26.0,0.0,398.8068952728494,698.47,279.816012
A-2313,CC(C)(C)c1cc(c(O)c(c1)C(C)(C)C)c2cc(cc(c2O)C(C)(C)C)C(C)(C)C,-6.889187497000001,30,84.0,1.617,-0.001559784996,-0.002035902408,-0.031551210061,0,11,368.299415,0,2,18,20.0,0.0,387.22485249526017,579.376,248.593358
A-2652,CC(C)(C)CC(C)(C)c1ccc(Nc2ccc(cc2)C(C)(C)CC(C)(C)C)cc1,-6.595120185,29,81.0,15.16,-3.66926e-06,-0.009296577288,-0.033158526151,0,5,350.30730839999995,1,0,24,23.0,0.0,396.0356510894903,615.249,253.439763
A-5934,CC(C)CCCC(C)CCCC(C)CCCC1(C)CCc2cc(O)c(C)c(C)c2O1,-8.505869726,30,84.0,9.702,-0.002280240474,-0.0012416416099999,-0.024652032048,0,6,368.299415,0,2,9,26.0,0.0,391.3957833916376,682.424,260.03808100000003
A-1544,CC1(C)CNCC(C)(C)C1OC(=O)CCCCCCCCC(=O)OC2C(C)(C)CNCC2(C)C,-4.40774699,34,96.0,1.658,-0.002697232579,-0.002506581716,-0.034313293675,0,10,428.3116313,2,4,25,23.0,0.0,423.569695079462,689.44,276.39639700000004
A-2761,CCCCCCCCCCCCCCOC(=O)CCCCCCCCCCCCC,-7.327107482000001,30,84.0,16.500999999999998,-0.002981010289,-0.002615369111,-0.040628098494,0,5,368.299415,0,2,5,26.0,0.001,364.3158063236693,771.3960000000001,264.037104
A-2551,CCCCCCCCCCCCCCC(CO)CCCCCCCCCCCC,-5.613599775,29,81.0,9.922,-0.000288093678,-0.004234955881,-0.034245281018,0,3,352.3000101,0,1,9,27.0,0.0,355.26007182045726,753.758,259.387314
A-1997,Nc1c(ccc2C(=O)c3ccccc3C(=O)c12)c4oc5cc6C(=O)c7ccccc7C(=O)c6cc5n4,-5.496412982000001,36,102.0,2.854,-0.0045792591,0.009767867546,-0.024484199554,0,10,456.3217721,2,5,18,24.0,0.0,368.86355670151846,592.175,293.590522
A-2741,OC(COc1ccc(c(O)c1)C(=O)c2ccccc2)COc3ccc(c(O)c3)C(=O)c4ccccc4,-7.138754702999999,36,102.0,9.319,-0.004529907691,0.009899872288,-0.02768336608,0,10,460.3071755,0,7,22,25.0,0.0,396.4137793860662,657.052,291.298075
A-3297,CN(Cc1ccc(Nc2cc(c(N)c3C(=O)c4ccccc4C(=O)c23)[S]([O-])(=O)=O)cc1)[S](=O)(=O)c5ccc(C)cc5,-1.942821991,41,117.0,20.054,-0.023817231414,0.022322832533,-0.117506283017,0,18,566.45686,3,7,24,27.0,-0.001,465.853688891602,736.7589999999999,354.982634
A-5755,CCCCOC(=O)c1ccccc1N\N=C2/C(=O)C(=Cc3ccccc23)C(=O)Nc4ccc5NC(=O)Nc5c4,-8.213807356,39,111.0,11.755999999999998,-0.003515406355,0.000644610915,-0.053854391292,0,9,498.3418817,5,5,38,33.0,0.001,316.8121983096932,753.184,317.901054
A-3685,OCCNc1nc(NCCO)nc(Nc2ccc3C(=O)C(=N/Nc4ccc(cc4)N=Nc5ccc(cc5)[S]([O-])(=O)=O)\C(=Cc3c2)[S]([O-])(=O)=O)n1,-0.28369802,50,144.0,18.11,-0.0308265597569999,0.0307780283089999,-0.212176570292,0,23,696.5025923,10,9,48,34.0,0.0,535.4503879913926,939.449,418.952923
C-2579,CCCOC1=CC=C2C(C(C(C3=CC=C(OC)C=C3OCC(O)=O)C2=C1)C(O)=O)C4=CC5=C(OCO5)C=C4,-6.77,38,108.0,17.974,-0.0033016949359999,0.01155626439,-0.046804853041,0,13,492.3059854,0,9,31,28.0,0.0,407.3763595114997,650.1469999999999,302.215183
B-1730,Fc1ccc(cc1)C(CCCN2CCC3(CC2)N(CNC3=O)c4ccccc4)c5ccc(F)cc5,-4.6772,35,99.0,18.718,-0.002020879191,0.002544825725,-0.0356331555979999,0,8,444.327662,3,1,12,22.0,-0.001,388.5479636782183,626.2909999999999,288.728315
C-1071,COC1=CC(=CC(=C1O)OC)C2C3C(COC3=O)C(OC4OC5COC(C)OC5C(O)C4O)C6=C2C=C7OCOC7=C6,-3.47,42,120.0,23.998,-0.006743115561,0.023178841258,-0.078186804189,0,21,556.3036051,0,13,27,24.0,-0.001,427.82729909077386,683.5269999999999,321.371189
A-1926,CN(C)C(=O)C(CCN1CCC(O)(CC1)c2ccc(Cl)cc2)(c3ccccc3)c4ccccc4,-4.673121562,33,96.0,4.838,-0.003550096693,0.00307201171,-0.02657784399,0,10,443.7764949,2,2,25,26.0,0.001,387.5529817087507,669.712,293.541935
A-3093,CCN(CC)c1cc2[o+]c3cc(N(CC)CC)c(C)cc3c(c2cc1C)c4ccc(cc4[S]([O-])(=O)=O)[S]([O-])(=O)=O,-0.80532039,40,114.0,21.599,-0.024284665779,0.020445271498,-0.110423772602,0,21,552.4501568,2,7,17,21.0,-0.001,467.986599387476,692.817,352.061689
A-6044,CC(=C)C(=O)OCCCOc1ccc(cc1)C(C)(C)c2ccc(OCCCOC(=O)C(C)=C)cc2,-7.456475387999999,35,99.0,30.248,-0.003765758151,0.0121905898579999,-0.054830593076,0,11,444.3077706,0,6,25,27.0,0.0,428.4398303845318,763.7539999999999,289.424765
C-786,CC12CCC3C(CCC4=CC(=O)CCC34C)C1CCC2OC(=O)CCCC5=CC=CC=C5,-5.43,32,90.0,10.13,-0.004679148141,0.003207701506,-0.045384753388,0,8,396.3095559,0,3,12,23.0,0.0,373.50533309983086,620.471,269.664512
A-5993,Cc1cc(Cc2cc(C)cc(c2O)C3(C)CCCCC3)c(O)c(c1)C4(C)CCCCC4,-8.146786217,31,87.0,6.8870000000000005,-0.002687167325,-0.000255625204,-0.029045295514,0,6,380.3101509,0,2,21,22.0,0.0,372.0088039536233,614.183,268.380395
B-2516,CC1OC(CCC1OC2OC(C)C(C(O)C2O)N(C)C)N3C=CC(=NC3=O)NC(=O)c4ccc(NC(=O)C(C)(N)CO)cc4,-2.4904,44,126.0,45.368,-0.010327044217,0.024202633095,-0.083140781952,0,17,576.3462046,6,9,37,31.0,0.0,489.67051759340654,785.345,339.223459
A-6036,CC(C)(C)c1ccc(OC(=O)c2cc(c(O)c(c2)C(C)(C)C)C(C)(C)C)c(c1)C(C)(C)C,-7.341090117999999,32,90.0,4.497,-0.003049910785,0.001290766806,-0.0263633775,0,9,396.3095559,0,3,23,22.0,-0.001,414.6028245274855,576.894,264.11547
A-5531,CC(C)(C)c1cc(Cc2cc(c(O)c(c2)C(C)(C)C)C(C)(C)C)cc(c1O)C(C)(C)C,-8.62805056,31,87.0,0.225,-0.002466431986,-0.00078833957,-0.0279821951679999,0,8,380.3101509,0,2,28,24.0,-0.001,411.1256291396022,641.177,263.291363
A-5933,CC(C)CCC[C@@H](C)CCC[C@@H](C)CCC[C@]1(C)CCc2c(C)c(O)c(C)c(C)c2O1,-8.520248661,31,87.0,4.518,-0.001468638449,-0.0036270619449999,-0.040163935872,0,9,380.3101509,0,2,13,25.0,0.0,390.08116204774393,702.5930000000001,272.68577400000004
A-2720,CC(C)CCCCCCCOC(=O)CCCCCCCC(=O)OCCCCCCCC(C)C,-6.9719833210000015,33,93.0,4.122,-0.004900977759,0.002928505394,-0.041520873733,0,8,412.3089608,0,4,12,28.0,0.0,410.90855391022416,824.967,282.492246
B-745,FC(F)(Br)C(F)(F)Br,-4.9376,8,18.0,0.0,-0.00021777765,0.0057849639419999,0.000894924423,0,18,259.82214,0,0,0,13.0,0.0,101.2359197973143,253.013,71.376906
B-931,FC(F)(F)C(F)(Cl)Cl,-3.0961,8,18.0,1.368,-0.0002143487849999,0.009374650886,0.004749506703,0,18,170.9209596,0,0,0,6.0,0.0,96.07957929475512,236.978,58.639248
G-26,FC(F)(Cl)C(F)(F)Cl,-2.74,8,18.0,0.0,-0.000193725399,0.009176556763,0.004800979965,0,18,170.9209596,0,0,0,7.0,0.001,96.22145059309584,238.503,58.643552
A-4533,ClC(=O)C(Cl)=O,0.8964494059999999,6,12.0,0.0,-0.001460846453,0.010733238909,0.004276933394,0,10,126.9261568,0,2,4,4.0,-0.001,82.71247104471486,222.039,57.70419
A-1467,FC(F)(F)C(Cl)(Cl)Cl,-4.333192393,8,18.0,1.329,-0.0001671865929999,0.0078007720669999,0.003927364172,0,18,187.375494,0,0,0,15.0,-0.001,107.565994230747,250.689,69.848405
B-3842,FC(F)(Cl)C(F)(Cl)Cl,-3.0423,8,18.0,0.7829999999999999,-0.000145081562,0.007621553096,0.003772675446,0,18,187.375494,0,0,0,6.0,0.0,107.77216734686792,252.246,69.784609
G-1122,ClC(Cl)(Cl)C#N,-2.168,6,12.0,1.921,-1.43613e-06,-0.000451210083,-0.001920737217,0,10,144.3869878,1,0,3,3.0,0.0,97.63897759088364,241.238,67.80876500000001
H-463,ClC(Cl)=C(Cl)Cl,-2.74,6,12.0,0.0,-8.2737e-08,0.003025556003,0.002137836331,0,12,165.8332221,0,0,2,1.0,0.0,103.95580987590174,251.303,77.970825
B-201,FC(F)(Cl)C(Cl)(Cl)Cl,-3.3093,8,18.0,0.914,-0.000101612012,0.006265076614,0.003001775324,0,18,203.8300284,0,0,0,5.0,0.0,119.22940230665132,264.636,81.155659
B-202,FC(Cl)(Cl)C(F)(Cl)Cl,-3.2301,8,18.0,0.98,-9.8617825e-05,0.006250657962,0.002760727537,0,18,203.8300284,0,0,0,10.0,0.001,119.30368127791117,264.907,81.123917
C-43,ClC(Cl)(Cl)C(Cl)(Cl)Cl,-3.94,8,18.0,0.0,-1.011e-09,0.003779875963,0.002113210532,0,18,236.73909730000003,0,0,0,8.0,0.001,142.28114931339718,288.331,104.29948
A-324,FC(F)=C(F)Cl,-2.160954298,6,12.0,1.445,-0.000179620428,0.007867281134,0.0041312999239999,0,12,116.4696189,0,0,2,1.0,0.001,70.29139726199813,202.072,42.53014
D-1378,FC(F)(F)C(F)(F)Cl,-3.411,8,18.0,1.265,-0.000267054774,0.011167579748,0.005833385157,0,18,154.46642519999995,0,0,0,13.0,0.0,84.4842154367675,221.624,47.599099
B-674,FC(F)=C(F)F,-2.8001,6,12.0,0.0,-0.000228774448,0.009772821755,0.005423356046,0,12,100.0150844,0,0,2,1.0,0.0,58.96814898365036,182.903,30.756105
A-639,FC(F)(F)C(F)(F)F,-2.423907212,8,18.0,0.0,-0.000335351632,0.013166902597,0.007098465084,0,18,138.0118908,0,0,0,9.0,-0.001,72.75073124896886,204.489,36.561961
A-1790,C#C,-1.336426377,2,1.0,0.0,-0.0,-0.001884273704,-0.001472613991,0,0,24.0214718,0,0,3,2.0,-0.001,34.24326676865157,131.393,20.129013
E-1053,BrC=CBr,-1.32,4,6.0,0.0,-2.564183e-05,-0.002378295981,-0.002344411818,0,6,183.8285274,0,0,3,1.0,0.0,72.6245802499176,219.836,61.643972
B-2665,Br\C=C\Br,-1.7415,4,6.0,0.0,-2.5641494e-05,-0.0023782991649999,-0.002344411605,0,6,183.8285274,0,0,3,1.0,0.0,72.62445335292755,219.836,61.643974
B-1119,Br\C=C/Br,-1.3195,4,6.0,0.0,-2.5643981e-05,-0.002378230212,-0.002344363861,0,6,183.8285274,0,0,3,1.0,0.0,72.62210247731494,219.83,61.643956
B-1463,ClC(Br)C(Cl)Br,-2.5644,6,12.0,0.0,-3.7769379e-05,-1.9967625e-05,-0.001018324787,0,12,254.7344025,0,0,2,1.0,0.0,109.25369085185883,265.883,91.280238
B-1429,OC(=O)C(Br)Br,0.9861,6,12.0,0.608,-0.0015804656159999,0.007685921994,0.001360533546,0,9,215.8273372,0,2,4,3.0,0.0,88.24299246126976,237.587,69.02908000000001
B-1280,NC(=O)C(Br)(Br)Br,-1.2668,7,15.0,1.765,-0.000641375086,0.003357836882,0.000594821419,0,10,293.7381633,1,1,6,3.0,0.0,118.59059417436876,279.701,93.033796
H-427,BrC(Br)C(Br)Br,-2.72,6,12.0,0.0,-5.3780973000000005e-05,-0.002831168983,-0.00370967098,0,12,343.6355829,0,0,2,1.0,0.0,114.33728512719904,279.396,104.624907
A-4158,ClC(Cl)=C,-1.588580927,4,6.0,1.964,-3.64442e-07,0.000919885541,0.000805354734,0,7,94.927347,0,0,2,1.0,0.001,69.80303518181111,199.252,49.374571
E-138,ClC=CCl,-1.3,4,6.0,0.0,-4.2719e-08,0.0013828202199999,0.00152889391,0,6,94.927347,0,0,3,1.0,0.0,67.4710037257832,201.062,48.355401
A-3404,Cl\C=C\Cl,-1.187180386,4,6.0,0.0,-4.2719e-08,0.001382819981,0.001528894623,0,6,94.927347,0,0,3,1.0,0.0,67.4710037257832,201.062,48.355402000000005
G-514,Cl\C=C/Cl,-1.3,4,6.0,0.0,-4.2748e-08,0.001382821411,0.001528705177,0,6,94.927347,0,0,3,2.0,0.0,67.47163990936751,201.062,48.355357
B-1695,FC(F)(Cl)CCl,-2.2007,6,12.0,2.082,-0.000116246373,0.005694333745,0.00184736096,0,13,132.9241533,0,0,0,1.0,0.0,83.63864559373377,214.808,53.206659
B-257,OC(=O)C(Cl)Cl,0.8896,6,12.0,1.5759999999999998,-0.001394612488,0.011070483352,0.0055706979969999,0,9,126.9261568,0,2,4,3.0,0.0,83.19158647638625,221.758,55.772158
H-499,FC(Cl)(Cl)CCl,-3.04,6,12.0,2.18,-5.3772554e-05,0.004003704086,-4.374506500000001e-05,0,12,149.3786877,0,0,0,1.0,0.001,95.2893422964975,233.163,64.630935
B-1282,NC(=O)C(Cl)(Cl)Cl,-1.0966,7,15.0,0.059,-0.000570656999,0.007661166029,0.004864276279,0,10,160.3863927,1,1,6,2.0,0.0,110.50758921000843,257.84,73.287915
B-3845,ClC(Cl)C(Cl)Cl,-1.7536,6,12.0,0.0,-8.268100000000001e-08,0.0030250248009999,0.002139064958,0,12,165.8332221,0,0,2,1.0,0.0,103.96124744379674,251.264,77.971071
B-1427,ClCC(Cl)(Cl)Cl,-2.1955,6,12.0,2.04,-2.3849e-08,0.002635314938,0.000726031545,0,12,165.8332221,0,0,2,1.0,0.0,106.30559639718032,249.83,76.490721
B-191,FC(F)(F)CCl,-1.1098,6,12.0,3.743,-0.00027260048,0.007174749504,0.000780334426,0,12,116.4696189,0,0,2,2.0,0.0,71.54683463694634,201.045,42.087258
G-495,ClCC#N,-0.092,4,6.0,4.456,-4.108431e-06,-0.002547040041,-0.005848661965,0,4,73.48111259999999,1,0,4,2.0,0.0,60.7884554182392,183.497,39.947994
B-2053,[O-][N+](=O)C(CCl)([N+]([O-])=O)[N+]([O-])=O,-0.2586,12,30.0,5.283,-0.0061135653929999,0.024713355763,-0.010151847971,0,15,197.4909485,3,6,14,9.0,-0.001,126.840563382614,275.0,82.764481
B-3983,FC(F)=C,-0.7061,4,6.0,0.423,-0.0001068417,0.004220085892,0.002848615957,0,7,62.0182781,0,0,2,1.0,0.0,47.30720466391586,159.375,25.589306