Name,SMILES,Solubility,AtomNum,DegFreedom,Dipole,Ghb,Gsasa,Gsolv,HNum,LP,MolWt,NNum,ONum,PiCenters,PiDeloc,Quadrupole,Volume,SASA,Polarizabilty
B-230,Cc1ccc(O[P](=O)(Oc2ccc(C)cc2)Oc3ccc(C)cc3)cc1,-6.0892,26,72.0,7.438,-0.002334296409,8.8747497e-05,-0.013464603434,0,8,347.19683560000004,0,4,16,17.0,0.0,324.5352587224762,498.815,227.657444
B-2700,CC(C)c1ccccc1O[P](=O)(Oc2ccccc2)Oc3ccccc3,-5.2239,26,72.0,8.306000000000001,-0.0037829172289999,-0.001849553695,-0.015168639346,0,8,347.19683560000004,0,4,16,19.0,0.0,300.9630703668752,510.722,227.793506
E-652,O=P(Oc1ccc(O)cc1C)(Oc2cc(O)ccc2C)Oc3c(O)cccc3C,-6.7,29,81.0,5.02,-0.017986288886,0.015047281329,-0.049772297299,0,15,395.1950503,0,7,19,15.0,0.0,328.23974883399774,489.0,240.412538
E-496,O=C(N(c(c(C1(C(N(C2)CC(C3C4C5OC6)=C6)C3)C2)ccc7)c7)C14)C5,-3.32,25,69.0,8.654,-0.0022955992069999,0.000656492121,-0.023158015172,0,4,312.2376702,2,2,16,16.0,0.0,258.1389420491716,405.67800000000005,207.32963
B-4460,O=C1C[C@@H]2OCC=C3CN4CC[C@@]56[C@@H]4C[C@@H]3[C@@H]2[C@@H]5N1c7ccccc67,-3.3202,25,69.0,8.655,-0.002295414007,0.000658597161,-0.023159353418,0,4,312.2376702,2,2,16,17.0,0.0,258.14494506118547,405.675,207.333337
C-980,CCCCC(=O)OCN1C(=O)NC(C1=O)(C2=CC=CC=C2)C3=CC=CC=C3,-4.68,27,75.0,5.835,-0.0025905009109999,0.0076373901299999,-0.0081267246349999,0,6,344.23648,2,4,23,23.0,0.0,307.26234067757304,526.605,219.752523
C-2540,COC1=CC2=C(C=C1OC)C(=NC=N2)N3CCN(CC3)C(=O)NC4=CC=C(C=C4)[N+]([O-])=O,-6.95,32,90.0,37.21,-0.008039629527,0.0067740692409999,-0.116919758681,0,11,416.2626978,6,5,26,22.0,0.001,348.63028483781744,554.111,254.523726
F-624,COC1=CC(O)=C(CC=C(C)C)C2=C1C(=O)CC(C1=CC=C(O)C=C1)O2,-5.44,26,72.0,15.066,-0.0063132171369999,0.009156900548,-0.058314140363,0,9,332.2224785,0,5,13,19.0,0.0,293.15756061636534,525.271,209.48687
B-1652,OC[C@H]1O[C@H]([C@H](O)[C@@H](O)[C@@H]1O)[C@@H]2c3cccc(O)c3C(=O)c4c(O)cc(CO)cc24,-1.7025,30,84.0,17.789,-0.009327751144,0.030835018796,-0.087933397999,0,14,396.2200982,0,9,24,24.0,0.0,302.898198074288,492.502,227.35462200000003
B-2362,OC1(CCN(CCCC(=O)c2ccc(F)cc2)CC1)c3ccc(Br)cc3,-3.6693,25,72.0,6.496,-0.004824388632,0.006760951927,-0.036011983597,0,11,397.1328979,1,2,21,18.0,0.0,292.8066563392092,594.57,225.659779
B-4458,OC1(CCN(CCCC(=O)c2ccc(F)cc2)CC1)c3ccc(Cl)cc3,-4.4289,25,72.0,9.044,-0.004887497159,0.008539282597,-0.034605978419,0,11,352.6823077,1,2,21,17.0,0.0,289.996841963245,585.552,218.802514
B-3303,CCCCCOC(=O)COc1cc(N2C(=O)C3=C(CCCC3)C2=O)c(F)cc1Cl,-6.3508,29,81.0,8.964,-0.003734795263,0.012302829496,-0.017758719277,0,15,400.6805225,1,5,18,21.0,0.0,322.7258752414461,595.503,237.743815
B-3530,CCOc1cc(ccc1C2COC(=N2)c3c(F)cccc3F)C(C)(C)C,-6.6782,26,72.0,2.281,-0.000337828706,0.0009471861,-0.019268466339,0,12,336.2277733,1,2,15,17.0,0.0,299.3257897055336,486.153,203.883965
F-743,O=C(CCCN1CCC(O)(C2=CC=C(F)C=C2)CC1)C1=CC=C(F)C=C1,-2.83,26,72.0,6.218999999999999,-0.004805435748,0.010179719745,-0.033693970063,0,11,336.2277733,1,2,22,17.0,0.0,279.16792326314066,564.308,207.412082
F-3,C1C[N+]2(CC3=CCOC4CC(=O)N5C6C4C3CC2C61C7=CC=CC=C75)O,-1.28,26,72.0,4.229,-0.003984273287,0.007845871054,-0.109529966763,0,6,328.2370751,2,3,18,19.0,0.0,265.1514477819581,421.955,208.989937
E-1001,c1ccc2Sc3ccc(C(#N))cc3N(CCCN4CCC(O)CC4)c2c1,-3.98,26,72.0,11.815,-0.002305921858,-0.000878974699,-0.0236467558699999,0,6,342.3097559,3,1,15,16.0,0.0,301.8216142419957,513.2130000000001,231.306458
B-1194,CN1CC[C@]23[C@H]4Oc5c(OC(C)=O)ccc(C[C@@H]1[C@@H]2C=C[C@@H]4OC(C)=O)c35,-2.7894,27,75.0,6.059,-0.001407650881,0.0052761349289999,-0.015250883233,0,12,346.2291817,1,5,17,15.0,0.0,294.29316869746015,500.126,219.644008
E-1016,c12C(=O)C3=C(O)C4(O)C(=O)C=C(O)C(N(C)C)C4CC3C(O)(C)c1cccc2,-1.42,28,78.0,11.531,-0.005108064594,0.01796322099,-0.0307707471909999,0,13,362.2285866,1,6,18,16.0,0.0,306.86148693615365,489.761,220.00354
A-2307,OCCOC(=O)CC(C[P]1(=O)Oc2ccccc2c3ccccc13)C(=O)OCCO,-4.461779562,30,84.0,10.161,-0.006849969561,0.020567828433,-0.016072432543,0,13,411.1944553,0,8,23,20.0,0.0,335.1328760086561,531.362,248.710177
F-738,O=C(CCCN1CCC(O)(C2=CC=C(Cl)C=C2)CC1)C1=CC=CC=C1,-3.35,24,69.0,4.774,-0.003937787518,0.005897731228,-0.026412518534,0,8,333.6839045,1,2,17,21.0,-0.001,283.6507821945093,563.433,216.016371
B-4486,CN1CCN(CCCN2c3ccccc3Sc4ccc(cc24)C(F)(F)F)CC1,-4.5238,27,78.0,11.224,-0.00025668122,0.00122848192,-0.017716304612,0,13,383.3055604,3,0,10,16.0,0.0,316.9655423426026,523.744,232.705307
B-1966,OC1(CCN(CCCC(=O)c2ccc(F)cc2)CC1)c3ccccc3,-4.1183,25,69.0,3.555,-0.004591816675,0.0069427235829999,-0.0346299972079999,0,7,317.22937010000004,1,2,20,19.0,0.0,272.36682960660846,548.379,205.587742
F-736,O=C(CCCN1CCC(O)(C2=CC=C(F)C=C2)CC1)C1=CC=CC=C1,-2.97,25,69.0,6.574,-0.003882928285,0.007535269464,-0.0253813405189999,0,8,317.22937010000004,1,2,18,18.0,0.001,272.6366588706474,542.42,204.552711
A-3024,OC[C@H]1O[C@@H](Oc2cc(O)cc(O)c2C(=O)CCc3ccc(O)cc3)[C@H](O)[C@@H](O)[C@@H]1O,-2.639897679,31,87.0,11.624,-0.009699254745,0.033684416628,-0.0516955786539999,0,17,412.21950310000005,0,10,23,18.0,0.0,319.6747075164732,564.121,231.021996
A-4997,CC(C)(c1ccc(O)c(CC=C)c1)c2ccc(O)c(CC=C)c2,-3.996383552,23,63.0,7.082999999999999,-0.00154669934,0.005522139897,-0.026367592642,0,5,284.2242637,0,2,14,18.0,0.0,283.15684826733866,553.259,201.288281
A-270,CC(C)(O)C(=O)c1ccc(Cc2ccc(cc2)C(=O)C(C)(C)O)cc1,-4.536378597,25,69.0,2.114,-0.004613246828,0.012070758606,-0.03767549621,0,9,316.2230736,0,4,18,17.0,0.0,306.50632244265574,495.989,206.907742
A-2378,CC(C)(c1ccc(OCC2CO2)cc1)c3ccc(OCC4CO4)cc3,-4.799620032,25,69.0,14.757,-0.000263973407,0.007468546542,-0.0302564705019999,0,6,316.2230736,0,4,17,19.0,0.0,287.0102757228523,528.059,208.592824
A-2743,CN(C\C=C\C#CC(C)(C)C)Cc1cccc2ccccc12,-4.464546178,22,60.0,14.431,-1.6215289999999998e-06,-0.007542383736,-0.028200202587,0,3,266.2321571,1,0,9,11.0,0.0,277.141833057795,504.63,191.728913
F-732,O=C(CCCN1CCC(O)(C2=CC=CC=C2)CC1)C1=CC=CC=C1,-2.68,24,66.0,12.633,-0.0037394774329999,0.004341061889,-0.031396348383,0,5,298.230967,1,2,20,17.0,0.0,265.26407174897724,524.097,202.734669
B-4464,OCCN1CCN(CCCN2c3ccccc3Sc4ccc(Cl)cc24)CC1,-4.1546,25,75.0,23.166,-0.002612059015,0.003026700468,-0.035565939635,0,6,377.7626934,3,1,17,21.0,0.0,314.95017035469573,552.665,243.626104
A-4926,CCC(=O)N(C1CCN(CC1)Cc2ccccc2)c3ccccc3,-3.41504339,24,66.0,13.876,-0.002067339254,-0.0013951905569999,-0.0305778478,0,3,296.2382652,2,1,12,16.0,0.0,279.7204592295536,454.771,201.976511
C-1027,CSC1=CC2=C(SC3=C(C=CC=C3)N2CCC4CCCCN4C)C=C1,-5.82,25,69.0,5.613,-4.3152558e-05,-0.003699467417,-0.009033661212,0,5,344.3684351,2,0,16,18.0,0.0,276.423546998873,565.7230000000001,243.751783
C-564,COC1=CC=C2C3CCC4(C)C(CCC4(O)C#C)C3CCC2=C1,-5.49,23,63.0,21.416,-0.0028862868329999,-0.000171946453,-0.048231045563,0,4,284.2242637,0,2,14,14.0,0.0,244.8323892129812,480.879,199.415432
A-2548,CCCCCCCCOc1ccc(c(O)c1)C(=O)c2ccccc2,-5.513798048,24,66.0,14.347,-0.004756347884,0.005218895427,-0.053170999343,0,6,300.2236687,0,3,16,21.0,0.001,275.16519850601827,517.368,202.298207
C-824,CC(C)(C)C1CCC(CC1)CC2=C(O)C(=O)C3=C(C=CC=C3)C2=O,-7.04,24,66.0,9.761,-0.002521441622,0.005203734547,-0.024823917916,0,7,300.2236687,0,3,12,15.0,0.0,280.2344896155915,453.961,197.244467
C-2012,CC12CC(=O)C3C(CCC4=CC(=O)C=CC34C)C1CCC2(O)C(=O)CO,-3.48,26,72.0,14.037,-0.0075909631779999,0.025392819452,-0.036903687619,0,7,332.2224785,0,5,20,19.0,0.001,281.64362951092016,525.071,210.652024
C-586,CC12CC(O)C3(F)C(CCC4=CC(=O)C=CC34C)C1CC(O)C2(O)C(=O)CO,-3.68,28,78.0,3.333,-0.0055519694539999,0.024938589791,-0.020750924722,0,15,367.22028660000007,0,6,17,15.0,0.0,311.64480036913096,491.633,213.02085
B-4511,C[C@]12C[C@H](O)[C@@]3(F)[C@@H](CCC4=CC(=O)C=C[C@]34C)[C@@H]1C[C@@H](O)[C@]2(O)C(=O)CO,-3.6929,28,78.0,3.748,-0.006410502031,0.028186384598,-0.0315846215719999,0,13,367.22028660000007,0,6,21,20.0,0.0,321.2592284964367,487.143,216.024639
I-42,O=C(NC1CCCCC1)NS(=O)(c1ccc(CCNC(c2cnc(cn2)C)=O)cc1)=O,-5.49,31,87.0,25.336,-0.007762639745,0.006712437908,-0.0780438090369999,0,14,418.321377,5,4,23,19.0,0.0,346.81140011105936,586.275,261.312157
A-123,CCc1cc(Cc2cc(CC)c(N)c(CC)c2Cl)c(Cl)c(CC)c1N,-7.278038713,23,69.0,4.14,-7.479979e-06,-0.008744960082,-0.03070605336,0,8,351.1447355,2,0,20,20.0,0.001,324.37353404597684,583.161,235.05917
F-1155,COC1=CC2=CC=C(C(C)C(=O)OCCN3CCN(C)CC3)C=C2C=C1,-1.49,26,72.0,29.079,-0.002891897148,-0.0014274160819999,-0.0483883198819999,0,4,328.2370751,2,3,22,18.0,0.001,311.4719933455881,556.1469999999999,217.83136800000003
B-2923,CCCCSC(SCc1ccc(cc1)C(C)(C)C)=Nc2cccnc2,-5.5712,25,69.0,10.517,-0.000216210083,-0.005088354613,-0.0230181342169999,0,6,344.3684351,2,0,21,19.0,0.001,327.6960004344578,549.821,241.261979
C-304,CCC12CCC3C(CCC4=CC(=O)CCC34)C1CCC2(O)C#C,-5.19,23,63.0,4.427,-0.00356596209,0.006400916114,-0.028058749284,0,5,284.2242637,0,2,14,16.0,0.0,262.0219400629898,477.737,198.169914
B-2251,CC[C@]12CC[C@H]3[C@@H](CCC4=CC(=O)CC[C@H]34)[C@@H]1CC[C@@]2(O)C#C,-5.2567,23,63.0,4.899,-0.003192020688,0.006415352887,-0.024720344939,0,5,284.2242637,0,2,12,16.0,0.0,255.7895400024221,474.973,196.462416
E-1267,C1C(=O)C=C2CCC3C4CCC(O)(C#C)C4(C)CCC3C2(C)C1,-5.66,23,63.0,7.178,-0.005037959058,0.006637385701,-0.0308270692699999,0,4,284.2242637,0,2,13,18.0,0.0,275.073196728271,433.579,195.851615
B-939,C[C@]12CCC(=O)C=C1CC[C@@H]3[C@@H]2CC[C@@]4(C)[C@H]3CC[C@@]4(O)C#C,-5.6576,23,63.0,10.197,-0.003885567614,0.0061422675379999,-0.030237789927,0,4,284.2242637,0,2,14,21.0,0.0,271.86375737574286,470.415,197.108419
F-1062,CCCCCCCOC(=O)C(C)C1=CC=C2C=C(OC)C=CC2=C1,-7.12,24,66.0,17.160999999999998,-0.002491829985,-0.001443875495,-0.035433465402,0,6,300.2236687,0,3,12,17.0,0.0,284.88035709378187,544.526,203.12038
B-709,CC(C)=C[C@@H]1[C@@H](C(=O)O[C@H]2CC(=O)C(=C2C)C\C=C/C=C)C1(C)C,-6.2155,24,66.0,5.443,-0.001938825313,0.001323822395,-0.032432590888,0,7,300.2236687,0,3,16,20.0,0.0,294.77517497587536,556.023,205.153425
A-4939,CC(O)COc1ccc(cc1)C(C)(C)c2ccc(OCC(C)O)cc2,-3.499700952,25,69.0,19.019,-0.000406047399,0.009590093392,-0.036944502579,0,5,316.2230736,0,4,17,20.0,0.0,309.5561367735563,532.127,209.015621
G-978,CC12CC(O)C3C(CCC4=CC(=O)C=CC34C)C2CCC1(O)C(=O)CO,-3.18,26,72.0,7.906000000000001,-0.0066629674939999,0.018134249699,-0.028955891131,0,8,332.2224785,0,5,18,20.0,-0.001,295.86772226375814,477.076,210.910246
A-114,C[C@]12C[C@H](O)[C@H]3[C@@H](CCC4=CC(=O)C=C[C@]34C)[C@@H]1CC[C@]2(O)C(=O)CO,-3.178447129,26,72.0,7.893,-0.0066627954469999,0.018146107943,-0.028922008633,0,8,332.2224785,0,5,18,20.0,0.0,295.8685553910205,477.112,210.910118
C-565,CC12CCC(=O)C=C1CCC3C4CCC(O)(C(=O)CO)C4(C)CC(=O)C23,-3.11,26,72.0,9.956,-0.00728145625,0.020234942357,-0.029885038192,0,10,332.2224785,0,5,19,16.0,0.0,289.1694184226078,509.271,210.679054
B-4570,C[C@]12CCC(=O)C=C1CC[C@H]3[C@@H]4CC[C@](O)(C(=O)CO)[C@@]4(C)CC(=O)[C@H]23,-3.1097,26,72.0,10.424,-0.007244095625,0.018690082534,-0.035378145946,0,8,332.2224785,0,5,20,17.0,0.0,295.69438589062617,474.545,210.249269
E-1002,C1C(=O)C=C2CCC3C4CCC(C(=O)CO)C4(C5O)CC(O5)C3C2(C)C1,-3.85,26,72.0,6.283,-0.006383521289,0.018450871537,-0.029020210572,0,7,332.2224785,0,5,20,23.0,0.0,282.2374971645341,471.951,205.532085
G-374,CC13CCC(=O)C=C1CCC4C2CCC(C(=O)CO)C2(CC(O)C34)C=O ,-3.85,26,72.0,10.593,-0.006028177824,0.017863660756,-0.033343200128,0,9,332.2224785,0,5,15,18.0,0.0,292.24159799684656,474.104,210.182563
A-12,CC12CC(O)C3C(CCC4=CC(=O)C=CC34C)C1CC(O)C2(O)C(=O)CO,-2.664548539,27,75.0,3.149,-0.0080777358589999,0.026978913218,-0.029382553191,0,11,348.2218834,0,6,21,18.0,0.0,315.0345580929277,500.821,215.820333
A-4394,CCN(CC[N+](C)(C)CC(C)O)c1ccc(cc1)N=Nc2ccc(cc2Cl)[N+]([O-])=O,-0.551894305,29,84.0,12.011,-0.003630198049,0.007310950665,-0.117793546998,0,11,405.7101223,4,3,29,19.0,0.001,364.5526847775743,589.617,250.698403
E-1122,CC12CC(O)C3(F)C(CCC4=CC(=O)CCC43C)C2CCC1(O)C(=O)CO,-3.43,27,75.0,3.013,-0.0071667773099999,0.025547390232,-0.021816907387,0,11,351.2208817,0,5,22,19.0,0.0,244.391754623536,543.984,207.989548
B-4578,C[C@]12C[C@H](O)[C@@]3(F)[C@@H](CCC4=CC(=O)CC[C@]34C)[C@@H]1CC[C@]2(O)C(=O)CO,-3.4342,27,75.0,11.390999999999998,-0.006150811494,0.020104047442,-0.034132804728,0,12,351.2208817,0,5,22,16.0,-0.001,298.0721447942957,478.144,210.88698
C-848,CC(C)N(CCC(C(N)=O)(C1=CC=CC=C1)C2=NC=CC=C2)C(C)C,-1.7,25,69.0,2.967,-0.001070059388,-0.001483425687,-0.016612118906,0,4,310.2449684,3,1,20,20.0,-0.001,302.2015822759176,522.316,210.342163
C-2060,O=C(COC(=O)C1=CC=CC=C1)N(C2CCCCC2)C3CCCCC3,-5.06,25,69.0,7.322,-0.001655163362,-0.0009394147109999,-0.01824858582,0,4,314.2303719,1,3,14,16.0,0.0,280.68024923595743,467.542,206.651126
A-2126,CCc1cc(Cc2cc(CC)c(N)c(CC)c2)cc(CC)c1N,-5.848587947,23,63.0,1.329,-1.1157486e-05,-0.012146385141,-0.037222976469,0,4,280.2388603,2,0,14,21.0,0.0,290.0696151188578,581.991,204.359317
C-389,CC(=O)C1CCC2C3CCC4=CC(=O)CCC4(C)C3CCC12C,-4.43,23,63.0,5.291,-0.003185642181,0.006047777642,-0.0262500140189999,0,3,284.2242637,0,2,12,15.0,0.0,278.72324191860656,460.457,198.49865
B-4571,CC(=O)[C@H]1CC[C@H]2[C@@H]3CCC4=CC(=O)CC[C@]4(C)[C@H]3CC[C@]12C,-4.5526,23,63.0,10.675999999999998,-0.003523893203,0.006644139615,-0.018541461248,0,4,284.2242637,0,2,13,16.0,0.0,282.5304236692426,453.8080000000001,196.867382
H-268,CC(=O)C1CCC2C3CCC4=CC(=O)CC(O)C4(C)C3CCC12C,-3.82,24,66.0,5.841,-0.005258002793,0.0120673924619999,-0.0277754864289999,0,4,300.2236687,0,3,16,18.0,0.0,299.6131242574355,478.589,201.503123
C-433,CC(=O)C1CCC2C3CCC4=CC(=O)CCC4(C)C3C(O)CC12C,-3.82,24,66.0,0.444,-0.005728768064,0.0119853994439999,-0.027909073053,0,5,300.2236687,0,3,15,16.0,0.0,293.3383396365263,470.621,200.614576
B-269,CC(=O)C1CC[C@H]2[C@@H]3CCC4=CC(=O)CC[C@]4(C)[C@H]3[C@H](O)C[C@]12C,-3.8202,24,66.0,7.1770000000000005,-0.004495347893,0.009694506266,-0.0222765052,0,7,300.2236687,0,3,14,17.0,0.0,277.89941578564066,457.276,198.513997
E-411,CC(=O)C3(O)CCC4C2CCC1=CC(=O)CCC1(C)C2CCC34C,-4.71,24,66.0,3.26,-0.005118667727,0.013165728852,-0.018937413142,0,7,300.2236687,0,3,13,17.0,0.001,277.21908551614274,484.989,199.69299
B-4577,CC(=O)[C@@]1(O)CC[C@H]2[C@@H]3CCC4=CC(=O)CC[C@]4(C)[C@H]3CC[C@]12C,-4.7076,24,66.0,4.481,-0.005178270064,0.012838944709,-0.020469825229,0,6,300.2236687,0,3,16,20.0,0.0,284.79425759597075,486.487,200.160794
C-1745,CC(=O)OC1CCC2(C)C3CCC4(C)C(CCC4=O)C3CC=C2C1,-4.53,24,66.0,9.626,-0.004468606769,0.005918982376,-0.045129970705,0,6,300.2236687,0,3,10,18.0,0.001,288.493362014714,468.921,201.348446
B-1528,CC(=O)O[C@H]1CC[C@]2(C)[C@H]3CC[C@@]4(C)[C@@H](CCC4=O)[C@@H]3CC=C2C1,-4.4584,24,66.0,6.068,-0.004073755516,0.005659290309,-0.039664787116,0,5,300.2236687,0,3,13,19.0,0.0,283.9630261350955,458.448,200.137317
G-1079,CC(=O)OC3CCC4C2CCC1=CC(=O)CCC1(C)C2CCC34C ,-5.184,24,66.0,4.592,-0.003126811416,0.0054547169169999,-0.020635849329,0,9,300.2236687,0,3,8,16.0,-0.001,278.9186583738149,458.701,201.156552
E-1121,C1C(=O)C=C2CCC3C4CCC(C(=O)CO)C4(C)CCC3C2(C)C1,-3.75,24,66.0,5.327999999999999,-0.006335669403,0.01246214321,-0.035585925053,0,6,300.2236687,0,3,12,16.0,0.0,286.29855183575825,460.28,200.947845
B-4575,C[C@]12CC[C@H]3[C@@H](CCC4=CC(=O)CC[C@]34C)[C@@H]1CC[C@@H]2C(=O)CO,-3.7446,24,66.0,3.139,-0.005928570327,0.012503814473,-0.030679192625,0,6,300.2236687,0,3,12,16.0,0.0,279.70413483793675,452.61300000000006,199.618083
C-486,CC12CC(O)C3C(CCC4=CC(=O)CCC34C)C1CCC2C(=O)CO,-3.24,25,69.0,9.406,-0.005972259203,0.017376797863,-0.026555846789,0,7,316.2230736,0,4,13,18.0,-0.001,296.4040995026108,463.277,203.380317
B-4566,C[C@]12C[C@H](O)[C@H]3[C@@H](CCC4=CC(=O)CC[C@]34C)[C@@H]1CC[C@@H]2C(=O)CO,-3.2408,25,69.0,11.759,-0.004711464216,0.014152763822,-0.03625672555,0,5,316.2230736,0,4,18,18.0,-0.001,277.37650748159734,448.97,201.957236
G-732,CC12CC(O)C3C(CCC4=CC(=O)CCC34C)C2CCC1(O)C(=O)CO,-3.09,26,72.0,8.728,-0.007651520195,0.023678736105,-0.039240613758,0,9,332.2224785,0,5,18,19.0,0.0,307.6647911800648,490.715,208.684977
A-1186,C[C@]12CCC(=O)C=C1CC[C@H]3[C@@H]4CC[C@](O)(C(=O)CO)[C@@]4(C)C[C@H](O)[C@H]23,-3.112109244,26,72.0,5.437,-0.0077999000799999,0.021715405235,-0.0440960861519999,0,11,332.2224785,0,5,16,17.0,0.001,287.4848043118072,481.55300000000005,208.333337
A-677,CCCCOC(=O)c1ccc(C(=O)OCCCC)c(c1)C(=O)OCCCC,-4.807173711,27,75.0,7.508999999999999,-0.0041197895449999,0.007722353907,-0.023338006227,0,9,348.2218834,0,6,27,18.0,0.001,308.24278086338563,606.239,219.980893
E-1005,C1C(O)CC2=CCC3C4CCC(C(=O)C)C4(C)CCC3C2(C)C1,-4.65,23,63.0,4.518,-0.003949916456,0.004682476723,-0.034081569829,0,4,284.2242637,0,2,10,15.0,0.0,280.2710732284834,458.302,196.235356
D-1603,CC(=O)[C@H]1CC[C@H]2[C@@H]3CC=C4C[C@@H](O)CC[C@]4(C)[C@H]3CC[C@]12C,-4.652,23,63.0,14.013,-0.0039153846769999,0.006710067671,-0.027486681222,0,4,284.2242637,0,2,16,15.0,0.0,279.1901020280453,448.064,196.285349
F-612,CC(O)C1(O)CCC2C3CCC4=CC(=O)CCC4(C)C3CCC21C,-4.16,24,66.0,5.926,-0.004637855863,0.0109146234009999,-0.023184618733,0,5,300.2236687,0,3,18,17.0,0.0,288.66279219224083,457.024,195.917669
C-1766,CC(=O)OC1CCC2C3CCC4CC(=O)CCC4(C)C3CCC12C,-5.35,24,66.0,6.266,-0.003251164723,0.005256432632,-0.020834408069,0,7,300.2236687,0,3,11,11.0,0.0,288.9371042348512,461.305,202.874754
A-2321,CCC(COCCOC(=O)C=C)(COCCOC(=O)C=C)COCCOC(=O)C=C,-2.687445856,30,84.0,36.916,-0.004823948662,0.0136672011819999,-0.154351343564,0,13,396.2200982,0,9,31,25.0,0.0,360.2493451605969,721.5169999999999,239.41827200000003
A-2008,OC(=O)CCCCCNc1nc(NCCCCCC(O)=O)nc(NCCCCCC(O)=O)n1,-2.5423613080000003,33,93.0,9.666,-0.020137932857,0.023205937305,-0.214670509755,0,12,432.2621027,6,6,25,25.0,0.0,358.01670637377,749.3989999999999,257.620892
A-4459,CCCCCCCCCCCCCCCC[n+]1ccccc1,-0.486149552,22,60.0,5.152,-1.7785319999999998e-06,-0.0081338310759999,-0.07785173572,0,1,266.2321571,1,0,4,20.0,0.0,267.2986057201776,563.072,193.418454
C-192,CCCCCCCCCCNC(=O)N[C]12C[CH]3[CH2]C([CH2][CH](C3)C1)C2,-5.83,24,66.0,6.86,-0.002797863172,-0.002101620321,-0.026765470666,0,5,296.2382652,2,1,16,18.0,0.001,291.3764399352329,526.965,202.563907
A-5263,CCCCCCCC\C=C/CCCCCCCC(=O)N(C)CC([O-])=O,-0.121592004,25,69.0,62.12,-0.012859516295,0.008131174325,-0.1900782893739999,0,8,314.2303719,1,3,9,19.0,0.0,298.4547368269883,630.373,213.965571
A-2630,CCCCCCCC\C=C/CCCCCCCC(=O)OC(C)C,-6.335189016,23,63.0,26.069000000000003,-0.0029276872009999,-0.0013698726569999,-0.0537258352649999,0,5,284.2242637,0,2,6,17.0,0.0,282.40510502928345,602.07,199.435123
A-2696,CCCCCCCC(=O)OCC(C)(C)COC(=O)CCCCCCC,-6.8531467820000005,25,69.0,10.201,-0.003187136095,0.002468793208,-0.028704180611,0,9,316.2230736,0,4,15,17.0,0.001,311.23966397220573,603.7280000000001,205.447853
A-1114,CCCCC(CC)C(=O)OCC(C)(C)COC(=O)C(CC)CCCC,-5.02063787,25,69.0,4.013999999999999,-0.002614688627,0.0018871680609999,-0.024788876292,0,9,316.2230736,0,4,17,19.0,-0.001,310.9270654672732,601.143,211.058061
A-5497,CCCCCCCC\C=C/CCCCCCCC(=O)NCC(C)O,-5.530921641,24,66.0,1.057,-0.003620325831,0.003280244081,-0.025355789554,0,4,298.2309669,1,2,8,18.0,0.0,295.09693622691714,625.768,206.656418
A-2728,CC(C)CCCCCCCCCCCCCCC(=O)OC(CO)CO,-6.855595469,25,69.0,44.17100000000001,-0.007392413511,0.010416006443,-0.111604187169,0,7,316.2230736,0,4,10,17.0,0.0,307.4283519865828,622.031,209.364414
A-5456,CCCCCCC(O)CCCCCCCCCCC(=O)OCC(O)CO,-3.397432456,26,72.0,7.777,-0.0065230556409999,0.013201462325,-0.046976723508,0,7,332.2224785,0,5,15,23.0,0.0,303.0845788558557,624.548,213.570189
A-953,CCCCCCCC\C=C/CCCCCCCCNCCCN,-3.955042001,23,63.0,8.165,-9.429791e-06,-0.011209554823,-0.0307692103189999,0,2,280.2388603,2,0,6,21.0,0.0,281.83256349225417,614.355,203.807785
A-1490,COCCOCCO[Si](CCCOCC1CO1)(OCCOCCOC)OCCOCCOC,1.582313338,33,93.0,33.631,-0.003320358421,0.00811565018,-0.066614433256,0,15,456.3044067,0,11,38,21.0,0.0,385.01789692030746,807.012,270.16745
A-3,CCCCCCCCCCCCCCCCCC[N+](C)(C)C,-3.616127121,22,60.0,2.935,-2.095154e-06,-0.008459321365,-0.0784671977049999,0,3,266.2321571,1,0,2,18.0,0.0,282.31526468887296,584.317,192.598937
B-861,c1ccc2c(c1)c3ccc4ccc5cccc6cc2c3c4c56,-9.1627,22,60.0,1.1909999999999998,-2.98079e-07,-0.005603483053,-0.0062345817429999,0,0,264.2361898,0,0,9,14.0,0.0,231.622014951964,390.739,194.661991