Name,SMILES,Solubility,AtomNum,DegFreedom,Dipole,Ghb,Gsasa,Gsolv,HNum,LP,MolWt,NNum,ONum,PiCenters,PiDeloc,Quadrupole,Volume,SASA,Polarizabilty
B-3329,[O-][N+](=O)C1C(=O)CC(CC1=O)c2ccccc2,-1.6688,17,45.0,10.504,-0.006477527624,0.017938648973,-0.0329167890519999,0,6,222.1331537,1,4,14,14.0,0.0,192.8186968638844,365.82,130.724972
B-3336,[O-]C(=O)CN[S](=O)(=O)c1ccc2ccccc2c1,-2.8497,18,48.0,32.108000000000004,-0.015100470193,0.014824704733,-0.130357094524,0,10,254.1979411,1,4,20,15.0,0.0,210.0910995097505,421.795,157.116765
B-3462,COc1ccc(cc1)C(=O)c2csc(c2)[S](N)(=O)=O,-4.4733,18,51.0,18.462,-0.007690881722,0.0106828667,-0.05417030306,0,10,286.26272850000004,1,4,15,13.0,0.0,225.69098996144703,410.42,172.264546
B-3464,COc1ccc(cc1)C(=O)c2coc(c2)[S](N)(=O)=O,-4.1481,19,51.0,15.691,-0.010556017638,0.014540107788,-0.043626788606,0,11,270.197346,1,5,13,13.0,0.001,216.832398511996,394.669,157.50712
F-1015,O=C(CS)NC1=CC=C2C=CC=CC2=C1,-3.34,15,39.0,10.525,-0.001951547045,0.00356322361,-0.0154447215189999,0,5,206.1997263,1,1,10,9.0,0.001,185.8862888530877,338.917,138.32138
B-4012,CCc1cccc2ccccc12,-4.1644,12,30.0,5.987,-1.528493e-06,-0.004158451049,-0.011109717666,0,0,144.12883080000003,0,0,6,5.0,0.0,141.61371729836574,289.975,108.282265
B-4011,CCc1ccc2ccccc2c1,-4.2901,12,30.0,8.78,-2.166867e-06,-0.004294127252,-0.014074267609,0,1,144.12883080000003,0,0,10,9.0,0.001,148.13362605655843,299.435,108.392389
B-4008,Cc1ccc2cc(C)ccc2c1,-4.8927,12,30.0,0.0069999999999999,-9.89007e-07,-0.004078001944,-0.004850895072,0,2,144.12883080000003,0,0,4,10.0,0.0,151.78858206794516,284.365,106.879997
E-58,c1ccc2c(C)cccc2c1C,-4.74,12,30.0,0.001,-1.001464e-06,-0.0039506812729999,-0.005682655344,0,2,144.12883080000003,0,0,4,8.0,0.0,143.52520085809311,275.486,103.515781
B-4006,Cc1cc(C)c2ccccc2c1,-4.2907,12,30.0,5.404,-1.4717700000000005e-06,-0.004190437266,-0.0077497381779999,0,1,144.12883080000003,0,0,7,10.0,0.001,155.78892603633474,292.205,108.336906
E-59,Cc1c(C)cc2ccccc2c1,-4.72,12,30.0,0.022,-7e-12,-0.0041576982899999,-0.003746092297,0,0,144.12883080000003,0,0,6,8.0,0.0,152.57365203653956,289.922,108.014989
B-4004,Cc1ccc(C)c2ccccc12,-4.1369,12,30.0,3.954,-1.198158e-06,-0.0040174643579999,-0.0059083902619999,0,2,144.12883080000003,0,0,5,8.0,0.0,145.11490764261518,280.143,106.199103
C-2435,COC1=NC(=NC(=N1)NC(=O)N[S](=O)(=O)C2=CC=CC=C2Cl)C,-1.71,22,63.0,8.189,-0.007398379342,0.007622241705,-0.041986848262,0,16,345.6776915,5,4,19,15.0,0.0,263.4203867928079,403.492,195.752207
B-2599,CC(C#C)N(C(=O)CCl)c1ccccc1,-2.6468,15,39.0,8.879,-0.0010693209,0.000253576947,-0.016082191787,0,7,209.5878765,1,1,6,10.0,-0.001,189.0230594867446,343.848,134.23424599999998
B-718,N(Nc1ccccc1)c2ccccc2,-2.9210000000000003,14,36.0,0.0139999999999999,-6.23275e-07,-0.005681565701,-0.007738102119,0,0,172.1422372,2,0,11,10.0,0.0,162.41771282936233,334.879,119.801684
B-1930,C1C[n+]2ccccc2c3cccc[n+]13,-3.425,14,36.0,3.164,-3.98194e-06,-0.005653906363,-0.295416114567,0,0,172.1422372,2,0,7,11.0,0.001,145.41864437858018,319.293,115.031434
A-655,Nc1ccc(Nc2ccccc2)cc1,-2.563130476,14,36.0,8.737,-1.0260391e-05,-0.006774541866,-0.019442069747,0,1,172.1422372,2,0,11,11.0,0.0,168.90799978447978,308.851,120.505952
E-455,Nc(ccc(c(ccc(N)c1)c1)c2)c2,-2.7,14,36.0,0.006,-1.0038287e-05,-0.008379289882,-0.017888224858,0,2,172.1422372,2,0,12,10.0,-0.001,163.10254331209111,328.725,119.716248
B-2231,CC1=CN(Cc2ccccc2)C(=O)NC1=O,-2.2558,16,42.0,4.865,-0.0034980756899999,0.006437179907,-0.019724947599,0,3,204.1410471,2,2,16,17.0,0.0,165.11596954631318,397.721,130.58654199999998
F-1159,O=C1NC2=C(C=CC=C2)C(=O)N2CCCC12,-3.75,16,42.0,5.607,-0.003923953717,0.005493233843,-0.018923641356,0,4,204.1410471,2,2,12,11.0,0.0,168.63090482395398,326.036,129.051053
C-1979,CCC1(C(=O)NC(=S)NC1=O)C2=CC=CC=C2,-3.58,17,45.0,7.638,-0.000895300493,0.006478750951,-0.003225910426,0,5,236.2058345,2,2,16,14.0,0.001,199.7413397143606,386.656,151.221809
G-554,Nc1ccc(cc1)S(=O)(=O)c2ccc(N)cc2,-3.094,17,45.0,4.158,-0.007878710091,-0.000135051371,-0.071198009377,0,8,236.2058345,2,2,15,12.0,0.0,185.2784901701762,417.321,150.128901
A-4952,Nc1cccc(c1)[S](=O)(=O)c2cccc(N)c2,-3.511895604,17,45.0,4.1610000000000005,-0.006604237646,0.000619790489,-0.041265192446,0,8,236.2058345,2,2,6,12.0,-0.001,197.50666076637052,383.57,147.707473
I-66,C1(NC(C(c2ccccc2)(C(=O)N1)CC)=O)=O,-2.29,17,45.0,2.267,-0.002099554634,0.00687066632,-0.004767851534,0,6,220.140452,2,3,16,12.0,0.0,198.6297068205101,375.409,134.36056000000002
A-1759,CCOC(=O)C1=NN(C(=O)C1)c2ccccc2,-3.255345443,17,45.0,10.72,-0.00034488787,0.004045446146,-0.021011256027,0,5,220.140452,2,3,13,13.0,0.0,194.0571425197834,360.199,136.331294
I-54,CCn1cc(c(=O)c2ccc(nc12)C)C(=O)O,-3.61,17,45.0,13.307,-0.005913101604,0.010495248965,-0.056216210199,0,5,220.140452,2,3,15,13.0,0.001,186.43389738796336,362.3130000000001,135.558032
B-3220,N#CC(=N\OCC1OCCO1)/c2ccccc2,-4.0649,17,45.0,2.922,-0.000114428011,-0.001997057658,-0.0054548977729999,0,7,220.140452,2,3,14,14.0,0.0,190.6260885724448,389.315,134.737047
F-1162,O=C1NC2=C(C=CC=C2)C(=O)N2CC(O)CC12,-2.37,17,45.0,5.162999999999999,-0.004339825954,0.011749738181,-0.020879838928,0,7,220.140452,2,3,12,11.0,0.001,182.74769834925675,348.636,132.212151
F-859,O=C1NCCCC1N1C(=O)C2=C(C=CC=C2)S1(=O)=O,-2.64,19,51.0,4.703,-0.008953521681,0.011778087518,-0.037870361521,0,9,268.2046443,2,4,13,15.0,0.0,200.94926136105263,372.772,160.619559
A-410,Nc1ccc(c2ccc(N)cc2[S](O)(=O)=O)c(c1)[S](O)(=O)=O,-2.6919272710000004,22,60.0,4.167,-0.017366136288,0.0144989258869999,-0.0562737054019999,0,18,332.2682416,2,6,12,10.0,0.0,249.6741734051525,396.348,187.303668
C-2075,CC1=NC(=C(S1)C(=O)NC2=CC=CC=C2)C,-1.73,16,42.0,2.254,-0.000288717155,-0.000522266452,-0.003853829694,0,6,220.2064295,2,1,8,10.0,0.001,197.3478122730517,338.093,144.346467
A-1350,Nc1ccc(N=Nc2ccccc2)c(N)c1,-2.9976655610000003,16,42.0,5.792000000000001,-7.99803e-06,-0.010535561636,-0.032339319786,0,2,200.1556436,4,0,17,13.0,0.0,197.50516205975143,396.497,133.424138
F-887,N=C(N)NN=CC1=C2C=CC=CC2=CC=C1O,-2.46,17,45.0,6.897,-0.002610426543,-0.003903718239,-0.023590620556,0,5,216.1550486,4,1,13,14.0,0.0,189.249231450662,371.177,138.99289
D-1074,[O-][N+](=O)c1nccn1CC(=O)NCc2ccccc2,-2.813,19,51.0,5.832999999999999,-0.0031923392379999,0.007239120743,-0.016883316037,0,8,248.1538584,4,3,17,12.0,0.0,212.8657950157259,427.228,150.234591
C-2300,CC(=O)NC1=CC=C(C=C1)[S](=O)(=O)NC2=NC=CC=N2,-3.59,20,54.0,4.761,-0.006719122235,0.004764643246,-0.019122430986,0,11,280.2186458,4,3,18,16.0,0.001,224.997151829224,430.092,168.047471
C-735,[O-][N+](=O)C1=C(C=C(C(=O)NC2CC2)C(=C1)[N+]([O-])=O)N3CC3,-3.39,21,57.0,1.979,-0.006703798996,0.016915793932,-0.030273158704,0,13,280.1526682,4,5,15,16.0,0.0,217.4296378907445,439.609,160.986151
C-2445,CN1C(=O)N(C)C2=C(N=C3C(=O)N(C)C(=O)N(C)C3=N2)C1=O,-3.31,22,60.0,5.931,-0.005189568444,0.016068172125,-0.012453159749,0,11,292.16666969999994,6,4,22,17.0,0.0,252.6260110583859,406.085,165.49133
F-12,O=C1CC(=O)CC(C2=CC=CC=C2)C1,-2.51,14,36.0,9.472,-0.004736061117,0.008661455327,-0.022346350012,0,4,176.1276406,0,2,8,12.0,0.0,155.04880256252804,322.093,109.87623700000002
B-1005,OC1=CC(=O)C[C@@H](C1)c2ccccc2,-2.5113,14,36.0,9.476,-0.004726368911,0.008661312233,-0.022289330465,0,4,176.1276406,0,2,9,12.0,0.0,155.05571995597936,322.086,109.87645
A-944,OCCOc1ccc2ccccc2c1,-2.71429469,14,36.0,9.895,-0.002324282028,0.004377469151,-0.014460101367,0,2,176.1276406,0,2,13,14.0,0.0,161.69770090938275,324.552,117.479236
A-841,O[Si](O)(c1ccccc1)c2ccccc2,-2.733020621,15,39.0,9.597,-0.004296295423,0.0059087277619999,-0.0201773515199999,0,2,204.2131393,0,2,12,13.0,0.0,184.10013619357787,328.733,140.576345
B-2681,CC(=O)C(CC(O)=O)=Cc1ccccc1,-1.6111,15,39.0,9.606,-0.001258714659,0.009684584209,-0.007412783791,0,3,192.1270456,0,3,13,13.0,0.0,182.714324143804,369.078,122.166053
B-3535,COC(=O)C1(CCC1)[S](=O)(=O)c2ccc(Br)cc2,-3.55,17,48.0,5.46,-0.007890533478,0.009393051078,-0.030577934166,0,13,320.0947657,0,4,13,10.0,0.0,221.3838222575499,415.236,166.726832
B-2769,CCCN(CCCl)c1c(cc(cc1[N+]([O-])=O)C(F)(F)F)[N+]([O-])=O,-5.5968,23,63.0,6.027,-0.006966248967,0.0218448281689999,-0.032607183742,0,21,342.5947072,3,4,15,12.0,0.0,246.68930921254483,473.521,172.84499499999998
B-4236,CC(C#C)N(C)C(=O)Nc1ccc(Cl)cc1,-3.8971,15,42.0,10.974,-0.0021508870029999,0.000893079339,-0.02097306044,0,9,223.5945797,2,1,8,13.0,0.0,200.46233321001623,394.517,135.75708500000002
B-3538,COC(=O)C1(CCC1)[S](=O)(=O)c2ccc(Cl)cc2,-2.9996,17,48.0,7.641,-0.007890082389,0.011153765449,-0.028972237429,0,13,275.6441755,0,4,13,9.0,0.0,218.82985614254204,406.627,160.008454
A-3914,CNCc1cccc2ccccc12,-1.7150988880000002,13,33.0,4.21,-9.96559e-07,-0.004664296263,-0.005853902804,0,2,158.135534,1,0,7,9.0,0.0,152.55268756143954,309.168,115.123144
B-686,CCNc1cccc2ccccc12,-3.1922,13,33.0,7.198,-1.745904e-06,-0.004792408324,-0.009884244764,0,2,158.135534,1,0,8,11.0,0.0,152.19423332308094,308.751,115.203444
A-4899,CC(Cc1ccccc1)(C=C)C#N,-3.000616717,13,33.0,4.184,-4.701203e-06,-0.006777577186,-0.0157795041739999,0,2,158.135534,1,0,12,10.0,0.0,168.88394346940112,337.908,113.792848
B-2776,NN[P](=O)(Oc1ccccc1)Oc2ccccc2,-2.2373,18,48.0,5.367000000000001,-0.009485343643,0.004205689873,-0.018003116148,0,7,251.114214,2,3,10,13.0,0.0,209.3562215188321,350.661,155.88523500000002
B-2965,Cc1cc(C)nc(Nc2ccccc2)n1,-3.2166,15,39.0,3.067,-4.146905e-06,-0.006074074728,-0.0095598357739999,0,4,186.1489404,3,0,10,10.0,0.0,177.43628292355203,311.543,126.681024
C-618,CC1N(C)CN2C(=O)C3=C(C=CC=C3)N=C12,0.03,16,42.0,5.6160000000000005,-0.001312358009,-0.001004159992,-0.012629571884,0,5,202.1483453,3,1,14,10.0,0.0,179.44172352316852,344.546,134.623423
B-2723,O=C(NCCc1c[nH]cn1)c2ccccc2,-0.634,16,42.0,2.945,-0.002265007074,-0.0021000513709999,-0.016308859793,0,4,202.1483453,3,1,15,12.0,0.0,179.61384655418354,373.734,128.83218
C-591,CC1=CC(=NO1)C(=O)NNCC2=CC=CC=C2,-2.46,17,45.0,9.587,-0.002627665112,0.002295910848,-0.020958334357,0,6,218.1477503,3,2,15,16.0,0.0,190.3347784975633,373.11,136.30765300000002
F-674,CNC(=N)NS(=O)(=O)C1=CC2=C(C=CC=C2)C=C1,-3.1,18,48.0,7.191,-0.00646816502,0.00116695184,-0.023923335961,0,9,250.2125377,3,2,15,14.0,0.0,211.42614963890335,390.702,159.927794
F-568,CC(=O)NC1=CC=C(S(=O)(=O)NC2=NC(C)=CS2)C=C1,-4.15,19,54.0,1.93,-0.007771462273,0.009751435963,-0.020458418634,0,10,298.27673,3,3,20,16.0,0.0,241.57670913042244,481.321,182.966239
B-1152,Nc1ccc(cc1)[S](=O)(=O)Nc2ccc(cc2)[S](N)(=O)=O,-2.7592,20,57.0,10.762,-0.0138850574469999,0.009922645379,-0.070655216328,0,13,314.2761349,2,4,17,15.0,0.0,232.5044586080612,449.879,190.125067
B-2152,NC(N)=NC(N)=Nc1ccc2ccccc2c1,-2.5497,17,45.0,7.354,-1.1010933e-05,-0.01091031569,-0.02371048964,0,6,214.1623469,5,0,13,15.0,0.001,193.5728062866268,375.955,138.797054
B-2386,NC(=N)NC(=N)Nc1cccc2ccccc12,-2.3151,17,45.0,2.197,-6.4901660000000005e-06,-0.0101428608169999,-0.0153026892409999,0,5,214.1623469,5,0,11,12.0,-0.001,194.45021717746985,357.069,139.92057
B-3250,COC(=O)c1sccc1[S](=O)(=O)NC(=O)Nc2nc(C)nc(OC)n2,-2.2379,25,69.0,9.097,-0.009043412269,0.009836284673,-0.047521855598,0,19,374.2883512,5,6,22,13.0,0.0,289.7003284321309,484.392,212.579344
C-2523,COC(=O)C1=C(C=CS1)[S](=O)(=O)NC(=O)NC2=NC(=NC(=N2)OC)OC,-3.19,26,72.0,14.605,-0.006683181537,0.0099751106259999,-0.062390207541,0,20,390.2877561,5,7,21,17.0,0.0,299.0984409658437,467.825,218.35907200000003
A-4810,CC1=Nc2ccc(cc2C1(C)C)C(O)=O,-2.662589054,15,39.0,3.329,-0.001175201626,0.004767522524,-0.00179415242,0,4,190.1343438,1,2,16,13.0,-0.001,187.73163893350272,353.465,125.061838
B-778,OC(=O)CCCc1c[nH]c2ccccc12,-2.9101,15,39.0,2.124,-0.002128182948,0.005717188381,-0.00524452904,0,5,190.1343438,1,2,11,12.0,0.0,164.9330285657405,347.35400000000004,122.8885
C-507,CC1=C(SCCO1)C(=O)NC2=CC=CC=C2,-3.14,16,42.0,5.445,-0.000449588276,0.001559219687,-0.006667454081,0,7,222.1991313,1,2,9,9.0,0.001,190.84668904338,353.784,142.44616299999998
B-3439,O=C(COC(=O)c1ccccc1)N2CCC2,-1.6085,16,42.0,7.494,-0.0032240511609999,0.004493860799,-0.019536773903,0,7,206.1337488,1,3,13,11.0,0.0,177.71414660345118,364.455,127.166022
F-413,CCC1(C2=C(C=C(C=C2)[N+](=O)[O-])C(=O)O1)CC,-3.66,17,45.0,2.502,-0.005271025303,0.014436283103,-0.018225021603,0,10,222.1331537,1,4,14,12.0,0.0,184.4769804592234,372.551,133.09317099999998
B-3446,CN(C(C)=O)C(=O)COC(=O)c1ccccc1,-2.8664,17,45.0,8.677,-0.002909096406,0.007414896983,-0.011155207511,0,8,222.1331537,1,4,14,13.0,0.0,195.80147486144745,361.464,129.713601
C-863,CC1=C(C(=O)NC2=CC=CC=C2)[S](=O)(=O)CCO1,-2.43,18,48.0,2.292,-0.0071975403119999,0.009170078357,-0.019127650169,0,8,254.1979411,1,4,13,11.0,0.0,203.74056529760816,375.652,153.405874
B-3414,CN(CC(O)=O)C(=O)COC(=O)c1ccccc1,-2.254,18,48.0,8.128,-0.004393536781,0.012888074283,-0.015394110995,0,10,238.1325586,1,5,17,14.0,0.0,199.73285759909297,375.522,135.032012
F-402,CC(=O)NC(COC(=O)C1=CC=CC=C1)C(=O)O,-3.22,18,48.0,4.259,-0.001773020675,0.007094941922,-0.006668074406,0,8,238.1325586,1,5,21,15.0,0.0,205.0925306731871,391.015,137.850843
B-2449,OC(=O)CC(O)(CC(O)=O)C(=O)Nc1ccccc1,-0.4874,19,51.0,11.247,-0.003663534451,0.016034359581,-0.013582099568,0,10,254.1319635,1,6,21,13.0,0.0,217.0158291657933,439.11800000000005,142.19980900000002
A-54,CC(=C)c1cccc(c1)C(C)=C,-4.451139225,12,30.0,0.8440000000000001,-1.19009e-06,-0.004553480398,-0.008335516081,0,2,144.12883080000003,0,0,6,8.0,-0.001,155.3147092253435,317.521,105.559432
B-377,CCCCOC(=O)COc1ccc(Cl)cc1Cl,-3.78,16,45.0,11.36,-0.002566051718,0.006239188403,-0.016436468166,0,10,263.0329207,0,3,10,11.0,0.0,209.398763735784,439.98800000000006,152.654358
B-4208,CCO[P](=O)(OCC)OC(=C\Cl)/c1ccc(Cl)cc1Cl,-3.4624,18,54.0,12.226,-0.005346876578,0.0059572521869999,-0.036780356076,0,13,345.4590252,0,4,17,13.0,0.0,257.3329926242381,455.009,197.47717
B-4367,CCO[P](=S)(OCC)O/N=C(C#N)/c1ccccc1Cl,-5.2917,20,54.0,6.692,-0.001115870184,-0.000564459394,-0.0120569893509999,0,13,318.631939,2,3,16,14.0,0.0,255.6931252520541,479.8,195.701329
A-3035,Clc1ccc2N(C3CC[NH2+]CC3)C(=O)Nc2c1,-2.663075861,17,45.0,7.855,-0.0009336300609999,0.000273248507,-0.082834181359,0,6,237.6012829,3,1,13,13.0,-0.001,189.701167681193,370.583,143.84864199999998
B-3267,CC1(C)CON(Cc2ccccc2Cl)C1=O,-2.3383,15,42.0,17.573,-0.0027533776419999,0.0059785509369999,-0.036815744439,0,7,225.5872814,1,2,12,11.0,-0.001,199.3258012271129,370.421,139.96372399999998
A-1173,COc1cc(NC(=O)CC(C)=O)c(OC)cc1Cl,-2.979244778,18,48.0,1.38,-0.001085793075,0.004729854851,-0.013402092574,0,10,257.5860913,1,4,11,10.0,0.0,217.58070323062336,416.117,150.55260800000002
A-2806,Fc1ccc(cc1)C(=O)C2CCNCC2,0.589019569,15,39.0,1.534,-0.001353408665,0.003677577392,-0.004847840541,0,5,193.1333421,1,1,9,11.0,0.0,165.0705456631973,336.732,121.721757
B-4346,C[n+]1ccc(cc1)c2cc[n+](C)cc2,0.4349,14,36.0,0.011,-3.771668e-06,-0.006312984827,-0.299532802853,0,0,172.1422372,2,0,6,10.0,0.0,176.0916186830403,315.994,112.772783
F-213,CC1(C)NC(=O)N(CC2=CC=CC=C2)C1=O,-1.8,16,42.0,10.088,-0.002492699986,0.004714302884,-0.01621995746,0,4,204.1410471,2,2,19,14.0,0.0,191.6662164173753,367.781,131.265526
B-4442,CCC1(C(=O)NCNC1=O)c2ccccc2,-2.64,16,42.0,4.084,-0.001245197416,0.001538971098,-0.00870461164,0,6,204.1410471,2,2,12,11.0,0.0,179.24749855007087,324.62,126.619608
F-549,N#CCCNC(CC1=CC=CC=C1)C(=O)O,-1.49,16,42.0,4.497,-0.000869396207,-5.6547473e-05,-0.009955655901,0,3,204.1410471,2,2,18,14.0,0.0,188.69453856011555,389.991,130.408228
B-2446,[O-]C(=O)[C@H](Cc1ccccc1)[NH2+]CCC#N,-1.4939,16,42.0,4.851,-0.000865156944,-0.000477529306,-0.010420487317,0,3,204.1410471,2,2,18,12.0,0.0,188.3452059322649,409.608,130.395073
F-404,COC1=CC=C(CC2NC(=O)N(C)C2=O)C=C1,-0.89,17,45.0,9.101,-0.0027223607539999,0.005272825082,-0.0161147053389999,0,5,220.140452,2,3,22,14.0,0.0,191.81978420365087,398.034,137.696588
C-1276,CN(CC(N)=O)C(=O)COC(=O)C1=CC=CC=C1,-0.92,18,48.0,5.763999999999999,-0.0026458661249999,0.009938707096,-0.0056386164799999,0,8,236.1398569,2,4,14,11.0,0.0,217.725344262722,375.535,139.449166
B-3450,CC(NC(=O)COC(=O)c1ccccc1)C(N)=O,-2.7172,18,48.0,6.813,-0.003465266241,0.009587749905,-0.014337661598,0,5,236.1398569,2,4,22,17.0,0.0,208.48377816588268,411.288,139.922721
C-2358,CC(C)(C)C(=O)OC1=CC2=C(C=C1)N=C(S2)[S](N)(=O)=O,-3.73,19,54.0,6.084,-0.01122650997,0.013388262743,-0.031262631596,0,14,300.2694317,2,4,8,11.0,0.0,241.95196696370647,434.074,175.661832
B-772,Oc1c(cc(cc1[N+]([O-])=O)[N+]([O-])=O)C2CCCCC2,-4.2492,19,51.0,8.626,-0.007702352181,0.019372464055,-0.0215232768,0,9,252.1392618,2,5,15,13.0,0.0,197.67490709084203,377.974,144.45449399999998
C-2090,CCC(C)C1=C(OC(C)=O)C(=CC(=C1)[N+]([O-])=O)[N+]([O-])=O,-2.25,20,54.0,1.855,-0.006918031173,0.01922152863,-0.030450329381,0,13,268.1386667,2,6,16,16.0,0.0,218.3390596468272,416.157,150.883347
B-3070,CN1C=CSC1=Nc2ccc(C)cc2C,-3.1630000000000003,15,39.0,5.282,-2.261388e-06,-0.002297487294,-0.006038255596,0,5,204.2070246,2,0,13,10.0,0.0,202.1437402915636,341.416,138.286215
F-482,CC1=C(NC(N)=O)C(=O)N(C2=CC=CC=C2)N1C,-1.52,18,48.0,9.443,-0.002150718107,0.001687029295,-0.025023690148,0,7,232.1544535,4,2,12,11.0,0.0,200.40902676701427,367.902,144.553678
F-728,N=C(N)C1=CC=C(CCC2=CC=C(C(=N)N)O2)O1,-1.02,18,48.0,0.427,-0.0004143609079999,-0.007111574781,-0.0144469223,0,6,232.1544535,4,2,14,12.0,0.0,201.27008801162552,414.305,143.416259
C-870,CC1=CC(=NC(=N1)C)N[S](=O)(=O)C2=CC=C(N)C=C2,-2.3,19,51.0,2.638,-0.006702298945,0.001102021265,-0.025563033684,0,10,264.2192409,4,2,16,12.0,0.001,229.7627306078321,412.545,166.328344
B-2079,Cc1cnc(N[S](=O)(=O)c2ccc(N)cc2)nc1C,-3.1435,19,51.0,7.1610000000000005,-0.007470995304,0.0003502307789999,-0.035648040125,0,7,264.2192409,4,2,20,14.0,0.0,201.2537734982425,449.99300000000005,165.35310900000002
I-79,S(=O)(=O)(Nc1nc(C)cc(n1)C)c1ccc(N)cc1,-2.73,19,51.0,5.641,-0.006492216297,0.0014518612049999,-0.02203659931,0,8,264.2192409,4,2,20,15.0,0.0,230.47036767152127,399.325,165.218719
C-911,CCN1C=CC(=NC1=O)N[S](=O)(=O)C2=CC=C(N)C=C2,-2.23,20,54.0,8.759,-0.0050322342589999,0.005346596221,-0.03426099498,0,9,280.2186458,4,3,17,14.0,-0.001,235.571845193931,439.192,171.63163799999998
D-1860,CCOc1ccc(N[S](=O)(=O)c2ccc(N)cc2)nn1,-2.427,20,54.0,4.843,-0.007596922314,0.00276731225,-0.037511515475,0,9,280.2186458,4,3,20,14.0,-0.001,214.76624835825055,439.525,171.944932
B-2033,COc1cc(N[S](=O)(=O)c2ccc(N)cc2)nc(C)n1,-2.543,20,54.0,6.587000000000001,-0.003943671334,-0.002037687092,-0.043527308209,0,10,280.2186458,4,3,14,14.0,-0.001,216.4390684755634,424.027,172.034321
C-2409,CCC1=NN=C(N[S](=O)(=O)C2=CC=C(NC(C)=O)C=C2)S1,-3.4,21,57.0,9.197,-0.005830166661,0.005224702142,-0.022466952077,0,13,312.2834332,4,3,17,15.0,-0.001,246.51156986458105,469.49300000000005,188.498687
B-4487,COc1cc(N[S](=O)(=O)c2ccc(N)cc2)nc(OC)n1,-2.9565,21,57.0,15.606,-0.006719123682,9.8649073e-05,-0.050866109484,0,8,296.2180507,4,4,29,16.0,0.0,244.42801310570465,466.541,177.156787
B-2633,COC(=O)NC(=S)Nc1ccccc1NC(=S)NC(=O)OC,-4.1097,21,60.0,4.987,-0.0014455879319999,0.0112817776239999,0.000147854278,0,10,328.2828381,3,4,32,21.0,0.0,255.87191829794327,557.4590000000001,196.005176
C-2131,CCCNC(=O)C1=CC(=C(C=C1[N+]([O-])=O)[N+]([O-])=O)N2CC2,-3.89,21,57.0,1.85,-0.0067318823459999,0.017050603874,-0.030127647157,0,13,280.1526682,4,5,15,15.0,-0.001,219.8622696133717,439.701,160.988398
C-2139,CC(C)NC(=O)C1=CC(=C(C=C1[N+]([O-])=O)[N+]([O-])=O)N2CC2,-3.5,21,57.0,0.7440000000000001,-0.006597162439,0.017431037045,-0.029325578236,0,13,280.1526682,4,5,15,18.0,0.0,228.782768248636,441.507,161.054641
A-500,NN[S](=O)(=O)c1ccc(Oc2ccc(cc2)[S](=O)(=O)NN)cc1,-3.758489195,23,63.0,10.294,-0.01553321079,0.013655948961,-0.050375028902,0,13,344.2822431,4,5,16,17.0,0.0,263.2451407067436,458.871,200.242294
F-762,N=C(N)NN=C1C=CC(=NNC(=N)N)C2=C1C=CC=C2,-3.29,20,54.0,1.224,-1.7027900000000002e-06,-0.014049577099,-0.014844109898,0,6,256.1824565,8,0,20,16.0,0.0,225.3891197217946,410.965,161.42152
B-2122,CCO[P](=S)(OCC)N1C(=O)c2ccccc2C1=O,-3.3522,19,51.0,6.443,-0.0021117377739999,0.007024300034,-0.007609388578,0,9,285.17170310000006,1,4,14,13.0,0.0,225.1560752736924,417.733,178.464219