Name,SMILES,Solubility,AtomNum,DegFreedom,Dipole,Ghb,Gsasa,Gsolv,HNum,LP,MolWt,NNum,ONum,PiCenters,PiDeloc,Quadrupole,Volume,SASA,Polarizabilty
B-3175,CCOC(=O)[C@@H](C)Oc1ccc(Oc2oc3cc(Cl)ccc3n2)cc1,-5.6042,24,69.0,15.94,-0.002569079554,0.006414145195,-0.02013719724,0,10,345.64991160000005,1,5,18,20.0,0.0,286.0431611473848,537.497,205.394264
F-1180,COCC1COC2=C(C=C3C(=C2)N=CN=C3NC2=CC(I)=CC=C2)O1,-3.52,24,69.0,4.905,-0.000264777513,-0.0061963887439999,-0.013254744105,0,11,433.1160425,3,3,14,15.0,0.001,287.1611896946339,521.876,228.593969
A-2200,N(c1ccccc1)c2ccc(Nc3ccccc3)cc2,-6.239449641,20,54.0,3.783,-2.582661e-06,-0.006986153258,-0.0091111573599999,0,2,244.2066526,2,0,11,14.0,0.0,231.34150744970103,370.955,172.815727
A-2244,Cc1ccc(N\N=C2/C(=O)C=Cc3ccccc23)c(C)c1,-6.705444298,21,57.0,5.127000000000001,-0.001513786989,-0.002861796613,-0.015982868331,0,3,260.20605750000004,2,1,14,15.0,0.0,243.78424477125043,420.429,178.593266
A-843,CC1=CC(=O)N(Cc2cccc(CN3C(=O)C=C(C)C3=O)c2)C1=O,-3.900334993,24,66.0,7.144,-0.0050315387369999,0.013624841003,-0.026628353199,0,9,308.2042723,2,4,22,16.0,0.0,273.1034451377847,473.481,192.984782
C-939,CC(=O)OCN1C(=O)NC(C1=O)(C2=CC=CC=C2)C3=CC=CC=C3,-4.47,24,66.0,3.013,-0.00273168213,0.010983500955,-0.002783971491,0,7,308.2042723,2,4,20,18.0,0.0,266.1557668164289,432.76,186.556966
F-594,O=C(O)CN1C(=O)N(C2=CC=CC=C2)C(=O)C1CC1=CC=CC=C1,-2.91,24,66.0,5.603,-0.003285666387,0.007423319564,-0.015586949644,0,6,308.2042723,2,4,19,15.0,0.0,266.17540497020167,457.151,193.623998
F-1198,OCC(O)C(O)C1=NN(C2=CC=CC=C2)C2=C1N=C1C=CC=CC1=N2,-3.13,25,69.0,17.517,-0.005179432033,0.00781517673,-0.051676099138,0,7,320.2182738,4,3,18,17.0,0.0,263.4103754018705,447.793,199.441687
D-1574,CC(=O)C1C(=O)C=C2Oc3c(C(C)=O)c(O)c(C)c(O)c3C2(C)C1=O,-3.537,25,69.0,8.447000000000001,-0.004619469033,0.019614645391,-0.030480488243,0,15,328.1890806,0,7,19,18.0,0.0,266.58743433833007,460.064,189.609358
F-952,CN(C(=O)CNC(=O)CN)C1=C(C(=O)C2=C(Cl)C=CC=C2)C=C(Cl)C=C1,-2.33,24,72.0,8.799,-0.00340259806,0.005357925869,-0.026981495892,0,14,377.1174458,3,3,20,17.0,0.0,304.85740651984713,487.997,223.472428
B-2613,CCOC(=O)C(C)N(C(=O)c1ccccc1)c2ccc(Cl)c(Cl)c2,-4.2627,22,66.0,16.142,-0.004018471792,0.007602129694,-0.033878718795,0,12,349.1040393,1,3,14,18.0,0.0,293.9013239102264,504.036,212.500849
C-948,CC1N(CN2C(=O)C3=C(C=CC=C3)N=C12)CC4=CC=CC=C4,-4.0,22,60.0,10.115,-0.002086364986,-0.001628849492,-0.023609385128,0,4,274.2127607,3,1,13,16.0,0.0,247.8347268301104,413.651,185.86074
A-5555,CC(C)(C)N(Sc1sc2ccccc2n1)Sc3sc4ccccc4n3,-8.362937857,23,69.0,6.674,-2.4493899e-05,-0.00068050185,-0.003616556917,0,13,386.4725055,3,0,12,14.0,0.001,321.6363458366917,505.652,257.719992
A-5603,COc1ccccc1N=NC(C(C)=O)C(=O)Nc2ccc3NC(=O)Nc3c2,-7.630599326,27,75.0,22.603,-0.003990789154,0.002770138756,-0.04867823675,0,7,350.2243819,5,4,31,20.0,0.0,307.9494240234169,497.565,216.443086
C-937,CN1CCN(CC1)C2=NC3=C(OC4=C2C=C(Cl)C=C4)C=CC=C3,-4.42,22,63.0,2.4290000000000003,-0.000166012074,-0.003650617905,-0.010737294802,0,7,309.6656983,3,1,15,15.0,0.0,264.3138317810099,425.507,199.75304
B-2712,CCN(OC(=O)c1ccccc1)C(=O)c2c(OC)ccc(Cl)c2OC,-4.0837,24,69.0,25.424,-0.0025866006,0.003909948234,-0.07081940989,0,12,345.64991160000005,1,5,16,13.0,0.001,288.6985370042868,481.699,207.091011
C-995,CCO/N=C(OC(=O)C1=CC=CC=C1)/C2=C(OC)C(=CC=C2OC)Cl,-4.08,25,69.0,19.575,-0.002004702395,0.002302495263,-0.066658405627,0,12,345.64991160000005,1,5,20,17.0,0.0,290.1625384159537,477.217,209.131214
C-978,CN(C)CC\C=C/1C2=C(SC3=C1C=C(Cl)C=C3)C=CC=C2,-5.87,19,57.0,10.938,-2.8580051e-05,-0.002390445889,-0.0135165485379999,0,6,297.7176744,1,0,8,12.0,0.0,259.4036881500465,457.905,197.19064
B-2735,OCCOCCOC(=O)c1ccccc1Nc2cccc(c2)C(F)(F)F,-5.3633,26,72.0,4.144,-0.003157890248,0.01417989534,-0.013420028581,0,15,351.19277860000005,1,4,18,15.0,0.0,278.1574022262923,503.591,194.558363
C-2318,CC(=O)OC1=CC=C(CC(NC(=O)C2=CC=CC=C2)C(N)=O)C=C1,-3.89,24,66.0,9.882,-0.003026941769,0.008931190537,-0.015453082885,0,6,308.2042723,2,4,18,19.0,-0.001,274.5740995501953,479.384,187.834417
A-1956,Nc1ccc(O[P](=S)(Oc2ccc(N)cc2)Oc3ccc(N)cc3)cc1,-5.309407137,26,72.0,0.626,-0.00060173269,-0.0104360818539999,-0.030308024688,0,15,369.25012,3,3,18,15.0,0.0,280.0004192004,606.02,242.123646
F-619,CC1=C(NC(=O)NC2=CC=CC=C2)C(=O)N(C2=CC=CC=C2)N1C,-2.3,24,66.0,6.496,-0.002078334265,0.002466456929,-0.0247122820589999,0,4,304.2188689,4,2,20,18.0,0.0,273.2052014976241,466.443,197.098235
A-5924,COc1ccc(N=NC(C(C)=O)C(=O)Nc2ccccc2OC)c(c1)[N+]([O-])=O,-8.308243053,28,78.0,15.996,-0.004775579138,0.006983988124,-0.0567457915809999,0,10,368.2164886000001,4,6,26,19.0,0.0,312.22153912002807,543.384,219.550959
C-2570,CC1=CC=C(C=C1)[S](=O)(=O)NC(=O)NC2=NC(=CC=N2)NC3=CC=C(C=C3)[S](N)(=O)=O,-4.3,30,87.0,9.595,-0.011830206315,0.009918454182,-0.047885236517,0,15,444.3600649,5,5,23,20.0,0.0,365.26659197881605,536.9730000000001,266.792011
C-2547,C[N]1N=NN=C1SCC2=C(N3C(SC2)C(NC(=O)C(O)C4=CC=CC=C4)C3=O)C(O)=O,-0.14,30,87.0,8.417,-0.006108469699,0.01634271363,-0.0470887709839999,0,19,444.3600649,6,5,15,15.0,0.0,349.30637160769896,527.5880000000001,260.147096
A-2478,Nc1ccc(N=Nc2cccc(c2)N=Nc3ccc(N)cc3N)c(N)c1,-4.197152695,26,72.0,21.673,-2.2374507e-05,-0.018020541506,-0.051761853699,0,4,328.2468719,8,0,25,21.0,0.0,282.0931829108156,608.997,213.543462
C-2134,CC12CCC3=C(C=CC4=C3C=CC(=C4)O)C1CCC2=O,-4.96,20,54.0,1.095,-0.005483286855,0.007745568841,-0.026520959854,0,4,248.192056,0,2,8,14.0,0.0,227.22370459885903,394.191,167.137986
E-1261,c1cc(O)ccc1C(C=C)C(C=C)c2ccc(O)cc2,-4.95,20,54.0,0.053,-0.003775560797,0.007415968367,-0.024775881297,0,6,248.192056,0,2,12,14.0,0.0,232.6281174346568,412.964,165.782538
G-584,CC=C(C(=CC)c1ccc(O)cc1)c2ccc(O)cc2,-4.95,20,54.0,1.837,-0.003695115375,0.007411592243,-0.02484630114,0,6,248.192056,0,2,8,14.0,0.0,232.75184053900372,413.132,165.78404
D-1415,C/C=C(c1ccc(O)cc1)/C(=C/C)c2ccc(O)cc2,-4.948,20,54.0,0.037,-0.003774952905,0.007415764611,-0.02479121275,0,6,248.192056,0,2,12,13.0,0.0,232.61968847360615,412.971,165.79249099999998
B-1849,CCCCOC(=O)C1(O)c2ccccc2c3ccccc13,-3.8885,21,57.0,11.868,-0.002369038637,0.00304836123,-0.021626545883,0,5,264.191461,0,3,16,15.0,0.0,236.82210187714008,429.567,173.76656699999998
B-3397,OC(=O)CCCC(C(O)=O)(c1ccccc1)c2ccccc2,-3.1737,22,60.0,5.763,-0.0033799889779999,0.012789995628,-0.0030885897409999,0,5,280.1908659,0,4,18,19.0,0.0,250.6428166802196,441.235,179.476257
F-617,O=C(O)C(SCCSC(C(=O)O)C1=CC=CC=C1)C1=CC=CC=C1,-3.41,24,66.0,20.936,-0.0094100130819999,0.017169295325,-0.075467768735,0,9,344.32044069999995,0,4,19,19.0,0.0,288.13469094948283,465.051,215.829734
A-951,O=C(OCCOCCOC(=O)c1ccccc1)c2ccccc2,-3.937488879,23,63.0,1.638,-0.003747911797,0.007592005795,-0.0135029763999999,0,8,296.1902708,0,5,20,15.0,-0.001,255.1931105451157,503.265,183.475311
A-467,O=C(OCC1CO1)c2ccc(C(=O)OCC3CO3)c(c2)C(=O)OCC4CO4,-2.7622964760000004,27,75.0,18.178,-0.004969564329,0.022861266893,-0.028788140955,0,13,360.1878905,0,9,22,20.0,0.0,290.28439866594795,543.507,203.949183
A-6037,CCN(CC)c1ccc(N=Nc2c(Br)cc(cc2[N+]([O-])=O)[N+]([O-])=O)c(NC(C)=O)c1,-7.379569278,29,84.0,7.451,-0.008509143323,0.0145370914479999,-0.049830427951,0,16,460.1340178,6,5,29,21.0,0.0,336.89329888638883,610.14,250.14642
F-796,CCOC(=O)C1=C(C)NC(C)=C(C(=O)OC)C1C1=C(Cl)C(Cl)=CC=C1,-5.68,23,69.0,15.161,-0.000655314159,0.001480182316,-0.033958209812,0,15,365.1034443,1,4,12,13.0,0.0,300.02329477401963,478.364,218.870378
B-3432,CC(C)(C)N(NC(=O)c1ccc(Cl)cc1)C(=O)c2ccccc2,-4.4404,22,63.0,9.555,-0.002547266902,0.003354931887,-0.026799617707,0,8,311.6584,2,2,15,15.0,0.0,279.7763777540481,432.218,195.968839
C-1463,CN1CCN(CC1)C2=NC3=C(NC4=C2C=CC=C4)C=CC(=C3)Cl,-4.64,23,63.0,7.463999999999999,-2.041111e-06,-0.005665618763,-0.016286823329,0,7,307.6729966,4,0,13,15.0,0.0,266.3750257375357,436.107,201.791465
F-810,CCOC1=CC(=O)C2(OC3=C(C2=O)C(OC)=CC(OC)=C3Cl)C(C)C1,-4.6,24,69.0,26.492,-0.002693590322,0.0055331789399999,-0.082431279765,0,13,347.6426133,0,6,21,19.0,0.0,285.7401534403396,503.381,207.978693
F-858,CCOC1=CC(=O)CC(C)C12OC1=C(C2=O)C(OC)=CC(OC)=C1Cl,-5.0,25,69.0,18.796,-0.003575522976,0.0077554410389999,-0.052392702463,0,15,347.6426133,0,6,16,17.0,-0.001,289.60219562944155,491.255,204.501009
F-1087,CC1N(C2=C(F)C3=C(C=C2F)C(=O)C(C(=O)O)=CN3C2CC2)CC1(C)N,-5.04,26,72.0,6.276,-0.00204977899,0.007181710674,-0.0246059279779999,0,13,344.2083769,3,3,17,18.0,0.0,284.7920266663812,517.827,203.059624
E-969,CN(C)CCCN2c1ccccc1Sc3ccc(C(F)(F)F)cc23,-5.3,23,66.0,10.351,-0.0003058809,0.003273981224,-0.013711964733,0,13,333.2666495,2,0,12,12.0,0.001,272.03218789898153,485.693,203.346257
A-6047,CC(=O)OCCN(CCOC(C)=O)c1ccc(cc1)N=Nc2sc(cc2[N+]([O-])=O)[N+]([O-])=O,-7.547293505,31,90.0,30.026,-0.01009162968,0.024736221479,-0.077532668798,0,16,446.286789,5,8,31,29.0,0.001,350.0385973658268,645.07,254.726926
F-56,C1=CC=C(CNC23OC4C5C6CC(C7C6C4C72)C53)C=C1,-3.4,20,54.0,2.391,-0.000620420305,-0.003027042263,-0.011517928295,0,4,246.1993543,1,1,13,10.0,0.001,201.83069204864773,389.793,155.827219
B-3516,CO\N=C(C(=O)OC)/c1ccccc1COc2ccccc2C,-5.195,23,63.0,5.559,-0.000462777058,-0.0026070929629999,-0.012113448764,0,9,294.1975691,1,4,12,15.0,0.0,272.534629727606,458.038,188.296457
C-1418,CO/N=C(C(=O)OC)/C1=C(COC2=C(C)C=CC=C2)C=CC=C1,-5.19,23,63.0,3.432,-0.0006620451609999,0.001580983106,-0.0077386358649999,0,8,294.1975691,1,4,15,13.0,-0.001,267.02849224273547,426.272,186.978143
F-432,CCOC(=O)C(CC1=CC=C(O)C=C1)NC(=O)C1=CC=CC=C1,-3.33,23,63.0,7.973,-0.00414652052,0.0092362039179999,-0.021480046204,0,8,294.1975691,1,4,19,16.0,-0.001,258.60382782733774,465.718,180.999974
A-2172,CC(C)(CC(=C)c1ccccc1)c2ccccc2,-6.01184247,18,48.0,4.024,-1.822445e-06,-0.005907203173,-0.011754091264,0,2,216.1932462,0,0,11,15.0,0.0,227.2379808055231,411.917,160.045203
H-572,CCC1=CC=C(C(C2=CC=C(CC)C=C2)C(Cl)Cl)C=C1,-7.04,19,54.0,10.114,-2.680551e-06,-0.003355721995,-0.019411142108,0,7,287.09912139999994,0,0,7,12.0,0.0,253.52918340603588,450.848,190.022841
A-2155,CCOc1ccccc1NC(=O)C(=O)Nc2ccccc2CC,-6.017546672999999,23,63.0,8.237,-0.001045082775,0.002880791404,-0.0100422839769999,0,4,292.2048674,2,3,23,20.0,0.0,266.3353846388216,410.6230000000001,191.981153
F-1176,O=C(O)C1CN2CCC1CC2C(O)C1=CC=NC2=C1C=CC=C2,-1.94,23,63.0,16.305,-0.004127462549,0.007508475596,-0.035554095997,0,8,292.2048674,2,3,12,13.0,0.0,234.367711902229,439.694,184.197396
C-1005,CCCCCN1C(=O)CCC(N2C(=O)C3=C(C=CC=C3)C2=O)C1=O,-4.7,24,66.0,9.287,-0.004332868308,0.011701960384,-0.024015999075,0,8,308.2042723,2,4,15,18.0,0.0,258.7185391123018,510.874,194.663894
A-4685,C[N+](C)=C1OCCC1(c2ccccc2)c3ccccc3,-2.526575134,20,54.0,2.697,-4.135176e-06,-0.002413515946,-0.090958222376,0,4,246.1993543,1,1,13,15.0,0.0,238.23977129641145,396.877,166.50235800000002
B-3223,CCO[P](=O)(Cc1ccc(cc1)c2sc3ccccc3n2)OCC,-4.0017,23,66.0,17.009,-0.005047201813,0.003489723211,-0.023740727815,0,5,341.23671360000003,1,3,17,18.0,0.001,292.2554173254873,500.478,226.491781
C-2097,CC12CCC3=C(C=CC4=C3C=CC(=C4)O)C1CCC2O,-4.64,20,54.0,4.652,-0.005285613138,0.007539300394,-0.031514736975,0,4,248.192056,0,2,12,13.0,0.0,222.881651698356,384.095,164.13262
C-1959,CC12CCC3C(=CCC4=C3C=CC(=C4)O)C1CCC2=O,-4.99,20,54.0,0.099,-0.005987238319,0.007704166679,-0.030584358757,0,4,248.192056,0,2,6,16.0,0.0,233.7485425076024,398.39,169.04083
B-970,C[C@]12CC[C@H]3C(=CCc4cc(O)ccc34)[C@@H]1CCC2=O,-5.2795,20,54.0,4.665,-0.0052795779319999,0.007537635466,-0.0314538864229999,0,4,248.192056,0,2,12,13.0,0.0,222.8776265908757,384.082,164.130383
E-494,Oc(ccc(C(=C(c(ccc(O)c1)c1)CC)CC)c2)c2,-4.35,20,54.0,0.221,-0.004977579673,0.007773583137,-0.02229229404,0,4,248.192056,0,2,10,12.0,0.0,233.70856357878063,390.852,165.396053
B-4294,CC\C(c1ccc(O)cc1)=C(\CC)c2ccc(O)cc2,-4.3495,20,54.0,4.771,-0.004746170444,0.0077151489599999,-0.0220394265579999,0,5,248.192056,0,2,9,15.0,0.0,241.2632012222885,394.515,165.692142
B-3088,CC[C@H]1OC[C@@H](COc2ccc(Oc3ccccc3)cc2)O1,-4.7874,22,60.0,5.234,-0.000462966823,0.002869324078,-0.017784628843,0,5,280.1908659,0,4,16,16.0,0.0,245.53253070685548,457.987,181.426405
F-1078,COC(=O)C1=C(O)C=CC(CCC2=C(OC)C=CC(OC)=C2)=C1,-6.39,23,63.0,27.027,-0.003796172805,0.006033539457,-0.069608949766,0,7,296.1902708,0,5,20,17.0,0.001,263.15349515727644,509.389,188.994824
A-1674,C=CC(=O)OCCN1C(=O)N(CCOC(=O)C=C)C(=O)N(CCOC(=O)C=C)C1=O,-2.451419462,30,84.0,6.065,-0.008300154538,0.025515729961,-0.017971052892,0,14,402.2080001,3,9,35,21.0,0.0,324.1561626375143,641.9209999999999,228.457094
F-719,OC(C1=CC=CC=C1)(C1=CC=CC=C1)C1CCNCC1,-1.39,20,54.0,5.955,-0.002505757636,-0.001913464671,-0.0240432011909999,0,2,246.1993543,1,1,12,17.0,0.0,227.8441376375952,384.852,168.17838
C-2087,COC1=C(O)C2=C(CC3C4C=CC(=O)CC24CCN3C)C=C1,-1.87,22,60.0,11.094,-0.004035656568,0.0031943046759999,-0.0335455590579999,0,6,278.1981642,1,3,21,16.0,0.0,217.5450429504121,457.752,184.248379
E-601,COc1ccc2CC5C3C=CC(O)C4Oc1c2C34CCN5C,-1.52,22,60.0,10.782,-0.003283077892,0.001807578889,-0.034250430997,0,5,278.1981642,1,3,19,15.0,0.0,238.41022755810985,429.489,183.860168
B-211,COc1ccc2C[C@@H]3[C@@H]4C=C[C@H](O)[C@@H]5Oc1c2[C@]45CCN3C,-1.5219999999999998,22,60.0,10.776,-0.003285958358,0.0018168804939999,-0.034264022214,0,5,278.1981642,1,3,19,18.0,0.0,238.44220136640809,429.494,183.859684
C-1413,COC1=CC=C2C=C(C=CC2=C1)C(C)C(=O)OCC(=O)N(C)C,-4.9,23,63.0,26.016,-0.003896338673,0.002987073652,-0.06291329117,0,9,294.1975691,1,4,16,19.0,0.001,270.13130745549404,484.979,186.438396
C-2285,COC1=CC=C2C=C(C=CC2=C1)C(C)C(=O)OC(C)OC(=O)CN,-2.44,24,66.0,23.655,-0.003379748523,-1.1637946e-05,-0.072154548737,0,11,310.196974,1,5,20,18.0,0.0,275.7993209734928,495.037,191.819625
C-2274,COC1=CC=C2C=C(C=CC2=C1)C(C)C(=O)OCCOC(=O)CN,-1.98,24,66.0,15.339,-0.003906004912,0.004569055888,-0.034532212357,0,10,310.196974,1,5,26,15.0,0.0,273.6718043541263,522.364,191.025086
A-972,CCO[P](=O)(C(=O)c1c(C)cc(C)cc1C)c2ccccc2,-3.956081947,22,60.0,6.138999999999999,-0.0032652273859999,0.003449745177,-0.017301558487,0,5,295.165223,0,3,16,16.0,0.0,274.73778203801675,415.039,193.51053
A-2229,CC(C)(c1ccccc1)C(C)(C)c2ccccc2,-6.474168897,18,48.0,7.54,-1.4693350000000002e-06,-0.005328210028,-0.012631708703,0,2,216.1932462,0,0,10,15.0,0.0,236.26380368166613,371.543,162.456473
A-2238,C1CC=CC(C1)c2ccc(cc2)C3CCC=CC3,-6.591929049,18,48.0,0.045,-4.13636e-07,-0.005623980902,-0.006731461768,0,0,216.1932462,0,0,11,14.0,0.0,207.36478525785432,392.168,158.662347
A-2104,CCCCCC(C)OC(=O)COc1ccc(Cl)c2cccnc12,-5.747969532000001,22,63.0,14.925,-0.0017092841209999,0.000798970142,-0.024205111814,0,9,313.6511018,1,3,14,20.0,0.0,270.50750510326475,510.22,197.208867
B-2744,CN(C(C)=O)c1c(I)c(NC(C)=O)c(I)c(C(=O)NC2[C@@H](O)OC(CO)[C@@H](O)C2O)c1I,-0.1982,31,90.0,11.491,-0.006723385034,0.021461509895,-0.0799816778309999,0,22,766.9220109,3,8,23,20.0,0.001,400.58818953258464,594.044,314.288391
B-282,CN1CCN(CC1)C(c2ccccc2)c3ccccc3,-2.4255,20,54.0,3.125,-1.382516e-06,-0.006443099381,-0.008508634164,0,1,244.2066526,2,0,8,15.0,-0.001,241.1773844170708,373.277,172.91512
A-579,CNCCCN1c2ccccc2CCc3ccccc13,-3.657617041,20,54.0,5.461,-1.222141e-06,-0.006355363019,-0.009572671387,0,1,244.2066526,2,0,16,16.0,0.0,228.18594091698745,418.001,175.724435
A-5003,C1CN(CCC1Nc2ccccc2)Cc3ccccc3,-3.954222946,20,54.0,12.814,-2.891467e-06,-0.0070059293409999,-0.022937410487,0,3,244.2066526,2,0,9,14.0,0.0,236.99437063697903,402.231,170.621178
B-4377,COc1cccc(n1)N(C)C(=S)Oc2cccc(c2)C(C)(C)C,-6.013999999999999,23,63.0,19.989,-0.00013181639,-0.003508154908,-0.03670223607,0,9,308.2702499,2,2,12,12.0,0.0,285.61618936087484,489.002,203.478263
F-839,CC12CCC(C3=C1N=C(NS(=O)(=O)C1=CC=C(N)C=C1)N=C3)C2(C)C,-4.08,25,69.0,4.321000000000001,-0.006700580205,0.000103256893,-0.030394777943,0,9,336.2836563,4,2,20,16.0,0.0,305.87621131877074,502.502,214.838823
C-2306,CC1=NC=C([N]1CCOC(=O)C2=CC=C(CN3CCOCC3)C=C2)[N+]([O-])=O,-2.89,27,75.0,11.272,-0.005495099909,0.011744268548,-0.0239652281969999,0,12,352.2170836,4,5,13,18.0,0.0,298.26132599157,532.362,213.142454
B-264,CC(C)(OOC(C)(C)c1ccccc1)c2ccccc2,-5.7692,20,54.0,10.283,-0.001504394662,0.001939322853,-0.017920589968,0,6,248.192056,0,2,12,14.0,0.001,261.4273882719852,396.05,167.209532
F-306,CC12CCC3C4=C(C=C(O)C=C4)CCC3C1CCC2=O,-5.11,20,54.0,1.079,-0.005477076306,0.007745191415,-0.026459461164,0,4,248.192056,0,2,8,11.0,0.0,227.2251685225639,394.195,167.144772
A-2086,C[C@]12CC[C@H]3[C@@H](CCc4cc(O)ccc34)[C@@H]1CCC2=O,-5.5511481210000015,20,54.0,5.722,-0.005202171093,0.007554170022,-0.031552881543,0,4,248.192056,0,2,12,14.0,0.001,222.57256848809888,383.74,164.410884
C-1916,CC12CCC3C(=CCC4=C3C=CC(=C4)O)C1CCC2O,-4.4,20,54.0,0.026,-0.0059902848679999,0.007704529785,-0.030610415308,0,4,248.192056,0,2,6,14.0,0.0,233.7456233249975,398.364,169.040657
D-1414,CCC(C(CC)c1ccc(O)cc1)c2ccc(O)cc2,-4.353,20,54.0,0.05,-0.003776271528,0.0074158338659999,-0.024784627815,0,6,248.192056,0,2,12,14.0,0.0,232.61692495242656,412.937,165.806356
F-1057,COC1=CC2=C(C=C1)C=C(C(C)C(=O)OC(C)(C)C)C=C2,-6.5,21,57.0,36.853,-0.002563172478,9.0647519e-05,-0.081809401429,0,5,264.191461,0,3,14,18.0,0.0,261.05342036255,468.599,174.092
F-1055,CCCCOC(=O)C(C)C1=CC=C2C=C(OC)C=CC2=C1,-7.53,21,57.0,39.132,-0.003152814687,0.0007198167,-0.074605422604,0,5,264.191461,0,3,18,18.0,0.0,253.76076445829665,488.959,178.648922
F-1141,OCC1OC(OCCC2=C3C=CC=CC3=CC=C2)C(O)C(O)C1O,-1.11,24,66.0,29.198,-0.007446202177,0.016694496327,-0.0836710787799999,0,9,312.18967569999995,0,6,19,17.0,0.0,252.2005216729468,442.394,188.847439
C-2104,O=C1COC2(CCN(CCC3=C[NH]C4=C3C=CC=C4)CC2)CN1,-2.99,23,63.0,7.296,-0.004534774832,0.004387262525,-0.026869815537,0,5,290.2121657,3,2,21,16.0,0.0,229.08892171324345,497.171,188.975935
B-3387,CCC(N(Cc1occc1)C(=O)n2ccnc2)C(=O)OCCCC=C,-2.8919,25,69.0,3.927,-0.002611072227,0.0017922741459999,-0.027601428515,0,12,322.2109755,3,4,10,17.0,0.0,284.4072239794565,510.642,199.019904
C-1471,CCN(CC)C(=O)COC(=O)C1=CN(CC)C2=C(C=CC(=N2)C)C1=O,-1.43,25,69.0,18.605,-0.004250432175,0.0054315432759999,-0.058088710076,0,12,322.2109755,3,4,19,18.0,-0.001,284.0561519022896,505.752,202.663576
C-2059,CC(COC1=CC=CC=C1)NC(C)C(O)C2=CC=C(O)C=C2,-1.53,22,60.0,19.191,-0.005496162863,0.007058980675,-0.05679545925,0,5,278.1981642,1,3,16,18.0,-0.001,264.002444935625,496.518,178.072577
F-974,COC1=C2OC3C(O)CCC4C5CC(=C2C43CCN5C)C=C1,-1.0,22,60.0,11.271,-0.00313368341,0.001533305804,-0.0363758675,0,5,278.1981642,1,3,21,18.0,0.0,238.38562514249716,425.08,183.254421
B-3486,CC(C)C1CCC(Cc2ccc(Cl)cc2)C1(O)Cn3cncn3,-4.6828,22,63.0,4.3580000000000005,-0.000162875793,-0.000500961003,-0.0164583938189999,0,7,309.6656983,3,1,17,18.0,0.001,282.0794631397536,505.125,198.3123
B-3273,CCC(C)(CC)c1cc(NC(=O)c2c(OC)cccc2OC)on1,-5.3694,24,66.0,22.018,-0.001891946202,-0.003214410549,-0.081322358219,0,9,308.2042723,2,4,17,15.0,0.0,281.8673434537221,505.4,198.661894
B-2860,C/C=C/C(=O)Oc1c(cc(cc1C(C)(C)CC(C)(C)C)[N+]([O-])=O)[N+]([O-])=O,-4.9595,26,72.0,8.743,-0.008189625358,0.017668894477,-0.037279905268,0,15,340.2030821000001,2,6,19,15.0,0.0,306.39750148553765,532.477,203.18657
F-806,CC1CCC(C(C)C)C2=C1C=NC(NS(=O)(=O)C1=CC=C(N)C=C1)=N2,-4.18,25,69.0,9.396,-0.006736697687,-0.0006862319,-0.040292506446,0,12,336.2836563,4,2,16,14.0,0.0,272.3581304109706,507.473,219.071379
A-2873,CC(C)=CCC[C@@](C)(C=C)\C=C\c1ccc(O)cc1,-6.337017381,19,51.0,5.568,-0.00192754612,-0.000300171508,-0.022967301986,0,5,232.1926511,0,1,11,14.0,0.0,245.5936916528571,469.755,165.132278
A-1510,C[C@]12CC[C@H]3[C@@H](CCC4=CC(=O)CC[C@H]34)[C@@H]1CCC2=O,-3.156500662,20,54.0,3.268,-0.004525675896,0.007825745868,-0.019216187983,0,4,248.192056,0,2,13,14.0,0.0,223.33094207189615,384.182,161.258639
A-1287,C[C@]12CC[C@H]3[C@@H](CCC4=C3CCC(=O)C4)[C@@H]1CCC2=O,-4.054976729,20,54.0,4.779,-0.003832659404,0.006671814545,-0.02379336076,0,5,248.192056,0,2,9,11.0,0.0,218.15860349373784,387.787,166.625017
C-495,CC12CCC3C(CCC4=CC(=CC=C34)O)C1CCC2O,-4.83,20,54.0,5.324,-0.005685010864,0.007371619211,-0.032666420763,0,5,248.192056,0,2,7,15.0,0.0,221.7673615412836,393.616,166.984461