Name,SMILES,Solubility,AtomNum,DegFreedom,Dipole,Ghb,Gsasa,Gsolv,HNum,LP,MolWt,NNum,ONum,PiCenters,PiDeloc,Quadrupole,Volume,SASA,Polarizabilty
A-2284,COCCCN1C(=O)c2c(N)c3C(=O)c4ccccc4C(=O)c3c(N)c2C1=O,-7.323792769,28,78.0,0.6679999999999999,-0.003271278802,0.007415414758,-0.022212169679,0,9,362.2318522,3,5,18,20.0,-0.001,292.50978212001604,500.836,222.894552
B-2235,CN1c2ccccc2C(O)(c3ccccc3)c4ccccc14,-3.9031,22,60.0,6.7410000000000005,-0.003402286483,-0.001697968278,-0.0379521521119999,0,3,270.22082610000007,1,1,11,16.0,0.0,244.9712638952564,409.495,183.983721
A-602,CN1C(=O)N(C(=O)C=C1C(F)(F)F)c2ccc(Cl)c(c2)C(=O)OC(C)(C)C(=O)OCC=C,-4.676528089,31,90.0,14.104,-0.0042491584259999,0.014170187545,-0.04983861556,0,23,456.672701,2,6,20,18.0,0.0,370.7814219745514,632.345,248.56772
B-974,Cc1cc2nc3c(C)c(N)ccc3[n+](c4ccccc4)c2cc1N,-0.8462,24,66.0,3.465,-6.3242570000000005e-06,-0.010984784029,-0.109679797261,0,5,296.2415308,4,0,15,17.0,0.0,278.538758685613,482.251,203.331814
A-3335,COc1ccc(cc1)N=Nc2ccc(cc2OC)N=Nc3cccc(c3)[S]([O-])(=O)=O,-0.83545917,30,84.0,48.94,-0.014990772227,0.006688798506,-0.110748456027,0,16,408.3033429,4,5,17,14.0,0.0,333.55688233166273,617.861,256.254407
A-2483,CC(=O)OCCN(CCC#N)c1ccc(cc1)N=Nc2sc3cc(ccc3n2)[N+]([O-])=O,-4.340908898,30,87.0,28.324,-0.005491967523,0.007776457334,-0.056277513729,0,10,420.3173444,6,4,25,21.0,0.0,344.91348838996817,645.992,258.977248
A-2442,CC(C)=CCCc1ccc2C(=O)c3ccccc3C(=O)c2c1,-7.985818524,22,60.0,8.267000000000001,-0.003412483628,0.003583350455,-0.031315052998,0,5,272.2135278,0,2,11,15.0,0.0,254.42724792991856,468.889,185.519758
A-1252,CC(c1ccc(O)cc1)(c2ccc(O)cc2)c3ccc(O)cc3,-4.086559757,23,63.0,2.908,-0.004367254777,0.013189898301,-0.01505848675,0,6,288.21293280000003,0,3,16,15.0,0.0,263.70329077073364,427.241,175.997944
A-1220,CC1=CC(C=CC1=N)=C(c2ccc(N)cc2)c3ccc(N)cc3,-2.105483191,23,63.0,8.616,-1.399281e-05,-0.011501748852,-0.032348119755,0,4,282.2348276,3,0,12,15.0,0.0,270.09508611482084,462.314,196.27189
A-2789,CCN(CC)c1ccc2C=C(C(=O)Oc2c1)c3oc4ccc(cc4n3)[S](N)(=O)=O,-7.831098412999999,29,81.0,7.01,-0.010288331061,0.011188053219,-0.0423367343829999,0,14,394.2966396,3,5,13,21.0,0.0,325.85573743867315,555.237,244.660325
A-6025,CCN(CC)c1ccc(N=Nc2c(cc(cc2C#N)[N+]([O-])=O)C#N)c(NC(C)=O)c1,-8.102753049,30,84.0,11.74,-0.004979294069,0.0020884444209999,-0.046840982389,0,11,386.2598552,7,3,29,22.0,-0.001,325.88136934079233,644.07,243.01539
C-1018,COC1=C2C(=O)C3=C(C=CC=C3)N(C)C2=C4C=CC(C)(C)OC4=C1,-5.21,24,66.0,7.246,-0.00199209867,-0.000351638957,-0.0341780460539999,0,6,302.219636,1,3,13,17.0,0.0,272.6090385553289,440.534,201.12848
B-2677,Cc1ccc(O[P](=O)(Oc2ccccc2)Oc3ccccc3C)cc1,-6.3733,25,69.0,8.346,-0.0039078036739999,-0.000371715409,-0.0236137775889999,0,7,335.1860997,0,4,17,18.0,-0.001,293.68957568666906,489.718,221.009992
A-6013,COC(=O)CCN(CCC(=O)OC)c1ccc(cc1)N=Nc2c(Cl)cc(cc2Br)[N+]([O-])=O,-7.100221625,30,90.0,33.775,-0.007863620256,0.0150959537309999,-0.063667992986,0,16,507.5944257,3,6,33,24.0,0.0,379.94729743677584,684.9680000000001,272.01461
A-6072,CC(=O)C(N=Nc1ccc(c(Cl)c1)c2ccc(N=NC(C(C)=O)C(=O)NN)c(Cl)c2)C(=O)NN,-8.705297393,32,96.0,28.056,-0.003685567546,0.00720973812,-0.063570180436,0,17,487.1718385,8,4,21,23.0,0.001,409.6691114093584,618.043,280.8743
B-3477,CCCCOC(=O)C(C)Oc1ccc(Oc2ccc(cc2F)C#N)cc1,-5.707999999999998,26,72.0,6.757000000000001,-0.002351150026,0.004812865979,-0.019087059918,0,9,337.217444,1,4,19,19.0,0.0,294.54534227669984,522.938,206.69458
F-1167,C1=CC=C(C2=CN=C(C3=CC=C(CN4CCOCC4)C=C3)O2)C=C1,-4.35,24,66.0,0.897,-0.000800699801,-0.001790324711,-0.00884722239,0,5,300.22693430000004,2,2,9,18.0,0.0,271.6032008377628,478.455,199.65343
F-1006,CC1=C(OCC2=CC=CC=N2)C=CC2=C1OC(N1CCOCC1)=CC2=O,-4.45,26,72.0,6.632999999999999,-0.002224219084,0.001608896347,-0.019610049956,0,8,332.2257441,2,4,19,20.0,0.0,282.22983300218164,505.64,212.866938
F-1023,CCCC(=O)OCN1C(=O)NC(C2=CC=CC=C2)(C2=CC=CC=C2)C1=O,-4.68,26,72.0,10.716,-0.002563570773,0.008924620299,-0.011852925579,0,6,332.2257441,2,4,23,21.0,0.0,296.2002891709742,486.75,210.477119
A-2928,Nc1c(cc(NC2CCCCC2)c3C(=O)c4ccccc4C(=O)c13)[S]([O-])(=O)=O,-1.296365099,28,78.0,4.31,-0.011097728001,0.011719544283,-0.087354898509,0,14,380.2899364,2,5,12,15.0,0.0,301.89284608853285,460.222,238.413567
C-2423,OCC(CO)C(=O)OCN1C(=O)NC(C1=O)(C2=CC=CC=C2)C3=CC=CC=C3,-2.21,28,78.0,13.408,-0.003109689154,0.0141024504,-0.0393754823899999,0,9,364.2245539,2,6,28,25.0,0.0,305.8386978758024,480.47,219.090611
A-2511,[O-][N+](=O)c1ccc(cc1)N=Nc2ccc(cc2)N(CCOCCC#N)CCC#N,-4.593750027,29,81.0,26.522,-0.0064128743779999,0.000493311904,-0.078982150479,0,9,372.253152,6,3,28,21.0,0.0,323.450514348752,634.486,229.909846
A-1756,O[C@]12COC(O[C@@H]1[C@H]3OC(OC[C@H]3O2)c4ccccc4)c5ccccc5,-4.437962659,26,72.0,0.997,-0.002245081628,0.007163790548,-0.0206160355609999,0,8,336.2111475,0,6,18,19.0,0.0,275.8229425133952,488.009,206.10949
A-5290,COC[P+](c1ccccc1)(c2ccccc2)c3ccccc3,0.506344271,22,60.0,0.897,-0.000234195768,-0.005959734265,-0.082867539629,0,1,287.1878849,0,1,12,16.0,0.0,266.5246522381715,445.048,201.030344
F-787,CCOP(=O)(CC1=CC=C(C2=NC3=C(C=CC=C3)S2)C=C1)N1CCCC1=O,-3.73,26,75.0,8.193,-0.004481540419,0.00483715742,-0.010085933004,0,9,379.26488860000006,2,3,21,18.0,0.0,319.712057671371,513.8430000000001,248.01806
B-213,Cc1cc(ccc1N)C(O)(c2ccc(N)cc2)c3ccc(N)cc3,-3.0272,24,66.0,8.132,-0.001295037198,-0.008507397021,-0.0350990224079999,0,6,298.23423260000004,3,1,21,16.0,0.0,292.98304785001017,479.657,195.237795
F-2,CC1=C2C=CC=CC2=C(CN2CCOCC2)C2=C1C=CC=C2,-4.4,22,60.0,4.325,-0.000176881508,-0.0031300316859999,-0.011283725952,0,1,270.22082610000007,1,1,13,17.0,-0.001,246.1922190635909,423.326,187.049764
I-63,c1(nccc2cc(c(OC)cc12)OC)Cc1cc(c(cc1)OC)OC,-3.87,25,69.0,4.441,-8.2821279e-05,-0.007110580114,-0.029691463018,0,6,318.2190409,1,4,23,19.0,0.0,287.00837524034813,532.891,210.529284
I-10,c1(c(CN(CC)CC)cc(cc1)Nc1ccnc2c1ccc(c2)Cl)O,-5.79,24,69.0,11.54,-0.00164555132,-0.0018871536079999,-0.0275934646329999,0,6,333.68717010000006,3,0,18,21.0,0.001,290.8993027851261,512.219,219.66953
B-3473,CC(C)(C)c1ccc(CCOc2ncnc3ccccc23)cc1,-6.1439,23,63.0,9.94,-2.7056e-05,-0.006028193259,-0.015673763114,0,4,284.2275293,2,1,12,17.0,0.0,269.4421586688373,466.7,190.460214
F-703,C#CC1CN2CCC1CC2C(O)C1=CC=NC2=C1C=C(OC)C=C2,-2.12,24,66.0,9.329,-0.001850422864,-0.000234829779,-0.022724037338,0,6,300.22693430000004,2,2,12,15.0,0.0,282.5577166290976,396.9980000000001,194.739282
B-293,COc1ccc2nccc(C(=O)C3CC4CCN3CC4C=C)c2c1,-5.0313,24,66.0,11.036,-0.001110245335,-0.001298473064,-0.020542524526,0,7,300.22693430000004,2,2,14,15.0,-0.001,286.4755705307012,406.877,194.048543
A-2752,CCN(CC)c1ccc(N=Nc2c(cc(C)cc2C#N)C#N)c(N[S](C)(=O)=O)c1,-7.233105094,28,81.0,8.714,-0.005263475954,-0.004793301477,-0.040690651793,0,12,388.3185345,6,2,26,27.0,-0.001,351.3542516354552,557.246,251.851081
C-1067,CN(CC1=NC2=C(N=C1)N=C(N)N=C2N)C3=CC=C(C=C3)C(=O)NC(CCC(O)=O)C(O)=O,-4.0,33,93.0,23.177,-0.008371646703,0.008455432359,-0.104615525017,0,12,432.2653683,8,5,31,27.0,0.0,356.16756310176413,667.321,256.54094
A-2274,COc1ccc(cc1)C(=O)CC(=O)c2ccc(cc2)C(C)(C)C,-7.060548154,23,63.0,6.985,-0.0035468297279999,0.002881259904,-0.040320162779,0,6,288.21293280000003,0,3,21,16.0,0.0,284.10486628072084,470.811,192.678032
F-1064,CCC#CCCOC(=O)C(C)C1=CC=C2C=C(OC)C=CC2=C1,-7.33,23,63.0,43.007,-0.003047689342,5.9685783e-05,-0.069800224285,0,5,288.21293280000003,0,3,19,17.0,0.0,277.81192707317143,536.082,196.678917
F-1068,COC1=CC=C2C=C(C(C)C(=O)OC3CCCCC3=O)C=CC2=C1,-5.59,24,66.0,38.98,-0.005387116861,0.004110801475,-0.105523903543,0,6,304.2123377,0,4,19,18.0,0.0,277.41443698927145,506.679,199.429415
A-15,O=C(OCCCOCCCOC(=O)c1ccccc1)c2ccccc2,-4.595502563999999,25,69.0,0.8859999999999999,-0.0039780516299999,0.004931559316,-0.046911795276,0,6,320.21174260000004,0,5,22,21.0,0.0,279.1168495977405,552.285,202.196873
F-1070,COC1=CC2=C(C=C1)C=C(C(C)C(=O)OC1COC3C(O)COC13)C=C2,-3.98,26,72.0,43.649,-0.003940281267,0.006561065364,-0.108861729356,0,11,336.2111475,0,6,18,17.0,0.0,283.03463887959487,509.253,209.568376
B-425,OCc1ccccc1O[C@@H]2O[C@H](COC(=O)c3ccccc3)[C@@H](O)[C@H](O)[C@H]2O,-2.8925,28,78.0,23.661,-0.004658152594,0.017096962615,-0.064969435356,0,13,368.2099574,0,8,21,17.0,0.0,295.73716043549,505.469,215.436079
F-850,CCCCOC1=CC(=O)C2(OC3=C(C2=O)C(OC)=CC(OC)=C3Cl)C(C)C1,-5.4,26,75.0,25.61,-0.005019109893,0.005815069483,-0.085334411273,0,14,371.6640851,0,6,19,19.0,-0.001,315.1302718402647,543.327,225.370185
F-878,CCCCOC1=CC(=O)CC(C)C12OC1=C(C2=O)C(OC)=CC(OC)=C1Cl,-4.7,27,75.0,25.78,-0.00451825328,0.005818766744,-0.084456732116,0,15,371.6640851,0,6,18,18.0,0.0,304.23465786848976,549.962,223.477187
I-9,CN(C)CC\C=C1\c2ccccc2CCc2ccccc12,-4.55,21,57.0,9.497,-2.610104e-06,-0.006659298852,-0.015765682067,0,1,254.2214212,1,0,15,16.0,0.0,250.4936229207074,439.297,186.682197
C-727,CNCCCC12CCC(C3=C1C=CC=C3)C4=C2C=CC=C4,-4.69,21,57.0,5.502999999999999,-2.763682e-06,-0.0066903388029999,-0.017568009189,0,2,254.2214212,1,0,13,16.0,0.0,229.6923919734915,441.596,187.487786
B-2986,CC(C)(C)C(O)C(Oc1ccc(cc1)c2ccccc2)n3cncn3,-4.8292,25,69.0,7.262,-0.001754718575,-0.003865198539,-0.025728619579,0,6,314.2336375,3,2,18,19.0,0.001,289.8286730609684,495.757,201.380973
A-2594,COC(=O)CCc1cc(n2nc3ccccc3n2)c(O)c(c1)C(C)(C)C,-6.8493235760000015,26,72.0,14.674,-0.0013586363269999,0.002872057866,-0.03325299648,0,10,330.2330424,3,3,14,18.0,0.0,297.43176496207263,525.0740000000001,211.886287
C-2500,COC1=CC2=C(C=C1OC)C(=NC=N2)N3CCN(CC3)C(=S)NCC4=CC=CO4,-5.63,28,81.0,12.407,-0.000638967405,-0.002043434609,-0.017175419443,0,9,390.3112362,4,3,21,19.0,0.0,334.5941615177943,561.356,246.770813
B-3177,COC(=O)C(C)N(C(=O)Cc1ccccc1)c2c(C)cccc2C,-3.9442,24,66.0,4.572,-0.0004919711,0.002081737642,-0.011216535354,0,8,302.219636,1,3,11,15.0,0.001,301.15050889716235,472.256,198.051464
F-758,COC1=C2OC3C(OC(C)=O)C=CC4C5CC(=C2C43CCN5C)C=C1,-1.3,25,69.0,12.825,-0.001557461239,-0.000793261159,-0.043368985015,0,7,318.2190409,1,4,19,16.0,0.001,273.38397568055365,476.6880000000001,206.565576
B-75,CN1CCN(CCCN2c3ccccc3Sc4ccc(Cl)cc24)CC1,-4.3979,23,69.0,10.823,-2.123858e-06,-0.003943249856,-0.019080745794,0,7,349.7525526,3,0,10,15.0,0.0,302.3216204054024,509.306,229.602255
C-817,COC1=CC2=C(C=CN=C2C=C1)C(O)C3CN4CCC3C(C4)C=C,-3.36,24,66.0,16.947,-0.002590736627,-0.002584008695,-0.052005912501,0,5,300.22693430000004,2,2,15,13.0,0.0,267.20002859973977,456.375,200.387751
C-807,COC1=CC=C2N=CC=C(C(O)C3CC4CCN3CC4C=C)C2=C1,-2.79,24,66.0,9.271,-0.001660612549,-0.0002592572369999,-0.024908921413,0,5,300.22693430000004,2,2,16,17.0,0.0,264.78568714448164,437.133,201.432363
A-4788,COc1ccc2nccc([C@H](O)[C@H]3C[C@@H]4CCN3C[C@@H]4C=C)c2c1,-2.81214297,24,66.0,9.454,-0.003234791348,-0.002672082551,-0.051623667088,0,5,300.22693430000004,2,2,17,15.0,0.0,278.2936223828964,458.814,198.645863
A-4787,COc1ccc2nccc([C@@H](O)[C@@H]3CC4CCN3C[C@@H]4C=C)c2c1,-2.81214297,24,66.0,13.688,-0.001319735784,-0.003366754159,-0.038539443458,0,7,300.22693430000004,2,2,12,16.0,0.0,267.48231965114627,466.925,199.291663
I-74,[H]C1(CN2CCC1C[C@@]2([H])[C@H](O)C1=CC=NC2=C1C=C(OC)C=C2)C=C,-2.79,24,66.0,17.639,-0.001789029491,-0.002988687049,-0.047075246557,0,5,300.22693430000004,2,2,16,13.0,0.0,272.2407880197215,458.216,200.99851
A-908,O=C1CCCCCN1C(=O)c2cccc(c2)C(=O)N3CCCCCC3=O,-3.958346195,26,72.0,7.733,-0.004486263273,0.011155843251,-0.030878422015,0,9,332.2257441,2,4,12,21.0,-0.001,278.20908249198084,467.509,209.210602
A-2968,CN(N=CC1=[N+](C)c2ccccc2C1(C)C)c3ccc(C)cc3,-1.329218805,23,63.0,4.739,-2.17182e-06,-0.007352974099,-0.096244920072,0,2,282.2348276,3,0,17,16.0,-0.001,291.56587265734765,480.917,198.583115
C-1509,NC1=NC2=C(N=C[N]2COCCOC(=O)C3=CC=C(CN4CCOCC4)C=C3)C(=O)N1,-2.75,31,87.0,30.547,-0.005367592341,0.003662974418,-0.0932872811,0,11,404.2519619,6,5,33,24.0,0.001,340.8965082554504,621.6469999999999,244.574302
A-2019,Cc1cc(ccc1O)C2(CCCCC2)c3ccc(O)c(C)c3,-5.371522306,22,60.0,10.242,-0.001530017374,0.003502880457,-0.027266759759,0,4,272.2135278,0,2,16,17.0,0.0,264.4514469056135,451.762,190.629189
C-542,CC12CCC3C(CCC4=CC(=CC=C34)O)C1CCC2(O)C#C,-4.47,22,60.0,16.104,-0.0047921405129999,0.0065356610999999,-0.045620625464,0,5,272.2135278,0,2,13,15.0,0.0,229.9229625971533,454.345,186.911615
B-68,C[C@]12CC[C@H]3[C@@H](CCc4cc(O)ccc34)[C@@H]1CC[C@@]2(O)C#C,-4.4192,22,60.0,16.032,-0.004788956154,0.0065398235129999,-0.045523624638,0,5,272.2135278,0,2,13,16.0,-0.001,229.9856131971113,454.334,186.91615
A-5060,CC[C@]12CCC3=C(CCc4cc(OC)ccc34)[C@@H]1CCC2=O,-4.772922847,22,60.0,16.414,-0.0016215974789999,-0.000123465698,-0.031819438821,0,3,272.2135278,0,2,14,17.0,0.0,242.81437012607503,439.592,188.006703
A-2297,CCC1(C\C=C2/CCCc3cc(OC)ccc23)C(=O)CCC1=O,-4.172504242,23,63.0,24.976,-0.002750636813,0.0037498714289999,-0.061092756562,0,6,288.21293280000003,0,3,16,14.0,-0.001,257.43099034294966,479.8,193.329521
A-5063,CCC1(C/C=C2/CCCc3cc(OC)ccc23)C(=O)CCC1=O,-4.838817119,23,63.0,23.639,-0.003016823113,0.004417827791,-0.0610374766,0,6,288.21293280000003,0,3,17,15.0,0.0,257.48145205294,483.862,193.309451
F-1069,CCC=CCCOC(=O)C(C)C1=CC=C2C=C(OC)C=CC2=C1,-7.36,23,63.0,27.465,-0.002717365569,-0.001213527075,-0.059866435471,0,5,288.21293280000003,0,3,21,15.0,0.0,272.6603802918143,520.3380000000001,194.212685
F-1066,COC1=CC=C2C=C(C(C)C(=O)OC3CCCCC3O)C=CC2=C1,-5.07,24,66.0,44.74100000000001,-0.005489921624,0.00386684975,-0.138575813488,0,6,304.2123377,0,4,18,16.0,0.0,277.5791749254835,504.015,199.414939
B-2427,C1COc2ccccc2OCCOCCOc3ccccc3OCCO1,-4.6935,26,72.0,2.713,-0.0004921424459999,0.0057829856629999,0.001877747812,0,12,336.2111475,0,6,18,16.0,0.0,284.0153058686533,477.858,208.492272
C-2395,CCN(CC)C(=O)NC1CN(C)C2CC3=C(Br)[NH]C4=C3C(=CC=C4)C2=C1,-4.38,25,72.0,18.808,-0.002074701328,-0.004078314107,-0.049007947144,0,9,392.1444635,3,1,17,19.0,0.0,297.32481301168025,528.4680000000001,232.498545
A-2544,CC(C)(C)CC(C)(C)c1ccc(O)c(c1)n2nc3ccccc3n2,-5.509793727999999,24,66.0,5.682,-0.000295466921,-0.002439261998,-0.017015514299,0,6,298.23423260000004,3,1,13,14.0,0.0,276.0399101226897,513.492,197.233642
F-913,CNC(=O)C1=CC=CC(NCC(=O)NCCC2=CC(OC)=C(OC)C=C2)=C1,-1.85,27,75.0,15.421,-0.005770956344,0.002467084326,-0.0601473398929999,0,9,346.23244730000005,3,4,20,19.0,0.0,303.5487487024763,596.465,221.068425
A-2967,CC(C)(C)N(CC(=O)c1ccc(O)c(CO)c1)Cc2ccccc2,-1.348776549,24,66.0,13.802,-0.004631743884,0.009864816888,-0.051033835177,0,7,302.219636,1,3,15,15.0,0.0,288.6978714713389,429.663,195.259404
F-774,COC1=C2OC3C(OC(C)=O)CCC4C5CC(=C2C43CCN5C)C=C1,-1.75,25,69.0,18.961,-0.002006092184,0.0003637755079999,-0.0556343519639999,0,7,318.2190409,1,4,21,16.0,0.001,273.56159202713286,476.869,205.965715
C-1431,CCN(CC)C(=O)COC(=O)C(C)C1=CC2=CC=C(OC)C=C2C=C1,-4.46,25,69.0,25.667,-0.0024595021979999,0.004611396371,-0.044871797143,0,7,318.2190409,1,4,20,16.0,0.0,298.28888269770283,498.127,207.795051
C-1467,COC1=CC=C2C=C(C=CC2=C1)C(C)C(=O)OCC(=O)N(CCO)CCO,-2.96,27,75.0,40.801,-0.007179678034,0.016256176095,-0.080741321459,0,8,350.2178507,1,6,26,21.0,0.0,310.93057944417524,572.312,215.535235
C-763,CC(CN(C)C)CN1C2=C(CCC3=C1C=CC=C3)C=CC=C2,-4.79,22,60.0,8.478,-2.058048e-06,-0.006621681148,-0.015822938209,0,3,268.2281244,2,0,13,17.0,0.0,259.11938840515376,455.872,192.098965
E-997,c1ccc2N(C)C3C4CC5C(CC)C(O)N4C(C56)CC3(C6O)c2c1,-2.82,24,66.0,19.256,-0.0031730264659999,0.004735783296,-0.044611209572,0,5,300.22693430000004,2,2,20,19.0,0.001,259.00460252809404,457.996,203.136139
B-2070,CC[C@@H]1[C@@H](O)N2[C@H]3C[C@@H]1C4C(O)[C@@]5(C[C@H]24)[C@H]3N(C)c6ccccc56,-2.8266,24,66.0,16.819000000000003,-0.003398720158,0.003832778444,-0.040052567419,0,7,300.22693430000004,2,2,17,16.0,0.0,255.6843787253013,435.684,197.828592
B-1070,CCC1CN2CCC1CC2C(O)c3ccnc4ccc(OC)cc34,-3.0514,24,66.0,17.05,-0.001941771522,-0.002242079164,-0.048758239464,0,5,300.22693430000004,2,2,17,13.0,0.0,273.44710384188824,464.073,198.728402
F-1154,COC1=CC2=CC=C(C(C)C(=O)OCCN3CCNCC3)C=C2C=C1,-1.52,25,69.0,16.764,-0.002487123834,-0.002133421504,-0.037216232523,0,6,316.2263392,2,3,17,18.0,0.0,286.7251902613932,527.205,206.777081
A-2181,CC(C)C(c1cc(C)cc(C)c1O)c2cc(C)cc(C)c2O,-6.16734062,22,60.0,1.846,-0.000953506284,-0.001519868012,-0.0208538995589999,0,10,272.2135278,0,2,5,16.0,0.0,266.2005122285892,448.665,190.156636
C-273,CC12CCC3C(CCC4=CC(=O)CCC34)C1CCC2(O)C#C,-4.63,22,60.0,5.792999999999999,-0.004568322292,0.0070335829449999,-0.02660659731,0,5,272.2135278,0,2,11,15.0,0.0,249.660305242279,420.584,184.663385
B-135,C[C@]12CC[C@H]3[C@@H](CCC4=CC(=O)CC[C@H]34)[C@@H]1CC[C@@]2(O)C#C,-4.6271,22,60.0,16.059,-0.004786847017,0.0065397236329999,-0.04548569553,0,5,272.2135278,0,2,13,15.0,0.001,229.95100016022465,454.298,186.907175
G-885,CC34CCC1C(CCC2=CC(=O)CCC12O)C3CCC4(O)C#C,-4.57,23,63.0,7.593999999999999,-0.005415508269,0.011276915463,-0.039824453485,0,7,288.21293280000003,0,3,16,16.0,0.001,254.81379040703143,470.199,193.238934
A-1306,CCC1(CC=C2CCCc3cc(OC)ccc23)C(O)CCC1=O,-4.122768724,23,63.0,24.237,-0.002876834365,0.004020760442,-0.061842219354,0,6,288.21293280000003,0,3,17,13.0,0.0,257.4255739046026,482.46,193.321954
F-1061,CCCCCCOC(=O)C(C)C1=CC=C2C=C(OC)C=CC2=C1,-7.54,23,63.0,43.059,-0.00305151197,5.8863261e-05,-0.0699502581,0,5,288.21293280000003,0,3,20,16.0,-0.001,277.82118172876227,536.16,196.681363
A-2039,O=C(OC1CCCCC1)c2ccccc2C(=O)OC3CCCCC3,-5.512605542,24,66.0,15.129,-0.001629955838,0.001076144355,-0.037016934961,0,5,304.2123377,0,4,17,18.0,0.001,265.1669328480418,445.536,196.669042
G-383,OCC3OC(OCC2OC(OC(C#N)c1ccccc1)C(O)C(O)C2O)C(O)C(O)C3O ,-0.77,32,90.0,17.685,-0.007577174846,0.0263435355049999,-0.051974797167,0,20,430.2148753000001,1,11,24,23.0,0.001,327.9794737455352,570.644,236.864339
F-972,COC1=CC=CC(CC(C)NC(C)CC2=C(OC)C=CC=C2)=C1,-3.0,23,63.0,6.502000000000001,-8.291695900000001e-05,-0.007170721457,-0.0262390936379999,0,6,286.220231,1,2,17,16.0,0.0,274.95042469673933,509.256,196.611737
F-960,COC1=C(CC(C)NC(C)CC2=C(OC)C=CC=C2)C=CC=C1,-2.0,23,63.0,2.4930000000000003,-5.1462148e-05,-0.006673730966,-0.016513207597,0,3,286.220231,1,2,20,19.0,0.0,284.86978992479567,498.17,198.242427
A-2098,COC1=CCC2=C(CCC3C2CCC4(C)C3CCC4(O)C#N)C1,-5.683242448,23,63.0,18.999,-0.002940528443,-0.002254098822,-0.040659782532,0,5,286.220231,1,2,15,16.0,-0.001,253.8157655601601,480.848,195.110654
B-667,CCCCCCCCO[P](=O)(Oc1ccccc1)Oc2ccccc2,-6.4131,25,69.0,12.101,-0.0055784761569999,0.000933756089,-0.017434306118,0,8,335.1860997,0,4,13,18.0,0.0,298.6020319591961,535.692,220.64094100000003
B-1644,CCCCC(CC)CO[P](=O)(Oc1ccccc1)Oc2ccccc2,-5.2804,25,69.0,10.963,-0.0061744103579999,-0.0013076628599999,-0.033402017551,0,10,335.1860997,0,4,9,16.0,0.001,301.61579290676565,512.807,220.765223
B-3403,CCOCCc1ccc(OCCNc2ncnc(CC)c2Cl)c(C)c1C,-5.2409,25,72.0,12.527,-1.5610297e-05,-0.003822895873,-0.029616013309,0,10,349.686575,3,2,16,19.0,0.0,315.49620629711325,570.011,226.22757
F-1139,CCOC(=O)C(CCC1=CC=CC=C1)NC(C)C(=O)N1CCCC1C(=O)O,-1.18,27,75.0,15.958,-0.0045932874859999,0.007796899192,-0.032879806982,0,10,348.22514900000004,2,5,25,18.0,0.001,307.80659101764,526.942,213.615026
B-3222,CCOC(=O)[C@H](CCc1ccccc1)N[C@@H](C)C(=O)N2CCC[C@H]2C(O)=O,-1.3609,27,75.0,15.847,-0.005209128198,0.010900762535,-0.033827920173,0,10,348.22514900000004,2,5,24,19.0,0.0,307.66061657549665,571.605,213.696694
C-2345,CCCN1C(=O)N(CCC)C2=C([NH]C(=N2)[C]34CC5[CH2]C(C[CH]3C5)C4)C1=O,-5.85,26,72.0,2.126,-0.002223335937,0.000650578655,-0.0224144957199999,0,8,328.2403407,4,2,14,15.0,0.001,284.6120388197608,504.473,215.079891
B-1714,CC(C)c1ccc2c(CC[C@H]3[C@@](C)(CCC[C@]23C)C(O)=O)c1,-4.6582,22,60.0,9.824,-0.000601487035,-0.000238639757,-0.010012948749,0,3,272.2135278,0,2,20,18.0,0.0,268.6378186229159,409.765,188.015578
A-5077,CC[C@]12CC[C@H]3[C@@H](CCC4=C3CC=C(C4)OC)[C@@H]1CCC2=O,-5.363817292,22,60.0,16.408,-0.001618002425,-0.000123233224,-0.031801587765,0,3,272.2135278,0,2,14,15.0,0.001,242.8093525160881,439.539,188.007799