Name,SMILES,Solubility,AtomNum,DegFreedom,Dipole,Ghb,Gsasa,Gsolv,HNum,LP,MolWt,NNum,ONum,PiCenters,PiDeloc,Quadrupole,Volume,SASA,Polarizabilty
A-597,CCc1ccc(CC(C)(C)C#N)cc1,-3.351339264,14,36.0,1.543,-5.029159e-06,-0.007221960428,-0.016079447811,0,3,170.1462699,1,0,14,8.0,0.0,182.188341110362,369.378,124.888814
B-4463,CN(C)C1=C(C)N(C)N(c2ccccc2)C1=O,-0.6286,17,45.0,4.717,-0.001958190333,-3.48579e-06,-0.013436180707,0,5,214.1590812,3,1,9,12.0,0.0,200.7508192276299,342.56199999999995,140.467723
F-844,NC(=NO)N1CC2=CC=CC3=C2C(CCC3)C1,-1.35,17,45.0,10.731,-0.003130462525,-0.002510770748,-0.029280828442,0,5,214.1590812,3,1,12,10.0,0.001,192.0960856464536,343.82300000000004,139.725092
B-1067,CN(C)C(=O)C(=O)N(N(C)C(C)=O)c1ccccc1,-0.5345,19,51.0,11.014,-0.003363818454,0.006318036052,-0.031688436363,0,9,246.1578911,3,3,14,12.0,0.0,236.57902996042856,388.93,151.72031
F-618,NC(CC1=CC=C(O)C=C1)C(=O)NCC(=O)NCC(=O)O,-1.47,21,57.0,0.971,-0.004707455577,0.014564773499,-0.020442208317,0,10,278.1567009,3,5,28,21.0,0.0,240.51142786874152,462.919,161.61238
C-2494,CC1C(NC(=O)C(=N\OC(C)(C)C(O)=O)/C2=CSC(=N2)N)C(=O)N1[S](O)(=O)=O,-1.64,27,78.0,6.27,-0.009346727452,0.018475539463,-0.0416930156199999,0,24,418.2978969,5,8,25,15.0,0.001,329.3706422278172,488.11800000000005,229.86224500000003
B-3408,CC(C)(C)NC(=O)COC(=O)c1ccccc1,-2.8665,17,45.0,7.577999999999999,-0.002881624308,0.002917367341,-0.020367911942,0,7,218.1444847,1,3,17,11.0,0.0,205.99526653071,380.105,135.936906
B-3445,CN(C)C(=O)CCCOC(=O)c1ccccc1,-1.2286,17,45.0,12.116,-0.003730619009,0.005902376818,-0.022008686116,0,7,218.1444847,1,3,12,9.0,0.0,197.6072404430812,401.583,136.996999
B-3448,CCCCNC(=O)COC(=O)c1ccccc1,-2.7588,17,45.0,3.947,-0.003104003104,0.003940229062,-0.026504883652,0,6,218.1444847,1,3,12,13.0,0.0,200.0357223502264,412.403,138.122894
B-3101,CCN(CC)C(=O)COC(=O)c1ccccc1,-2.0706,17,45.0,8.408999999999999,-0.002683440728,0.003834056839,-0.0212781579419999,0,7,218.1444847,1,3,14,15.0,0.0,198.93070013095036,389.519,138.365613
F-426,CCOC(=O)C(CC1=CC=CC=C1)NC(C)=O,-1.86,17,45.0,7.49,-0.00121950333,0.000810297292,-0.016609759095,0,7,218.1444847,1,3,18,13.0,0.0,197.70796438132285,393.795,138.151801
B-1854,CCOC(=O)[C@H](Cc1ccccc1)NC(C)=O,-1.7557,17,45.0,7.544,-0.0010952000229999,0.002070143616,-0.012608771036,0,7,218.1444847,1,3,18,16.0,0.0,197.6000491453032,394.056,138.18008799999998
C-1867,CCCCOC(=O)C1=CC=C(NC(C)=O)C=C1,-3.46,17,45.0,11.286,-0.002207165056,0.004675330747,-0.013598418723,0,6,218.1444847,1,3,18,14.0,0.0,196.8770697612741,412.651,135.339527
F-394,CCOC(=O)C(C)(C)NC(=O)C1=CC=CC=C1,-1.19,17,45.0,7.332000000000001,-0.0032771611459999,0.005839156664,-0.016072425814,0,5,218.1444847,1,3,17,13.0,0.0,205.2385955345609,404.029,138.806179
C-1249,CCN(CCO)C(=O)COC(=O)C1=CC=CC=C1,-1.37,18,48.0,6.089,-0.002936016064,0.008853922905,-0.018161330658,0,6,234.1438896,1,4,16,10.0,0.001,210.05815150107497,392.34,143.116559
C-1269,CCN(CC)C(=O)COC(=O)C1=C(O)C=CC=C1,-2.56,18,48.0,7.436,-0.003309465295,0.010817202565,-0.012492753657,0,8,234.1438896,1,4,16,15.0,0.0,208.8513860018045,357.57800000000003,138.29953700000002
B-1524,CCOC(=O)[C@H](Cc1ccc(O)cc1)NC(C)=O,-1.8586,18,48.0,4.888999999999999,-0.002644161243,0.007184203713,-0.01660264176,0,9,234.1438896,1,4,21,14.0,0.0,204.79249822427985,410.494,143.093457
C-1922,CCCCOC(=O)OC1=CC=C(NC(C)=O)C=C1,-3.37,18,48.0,4.34,-0.000423204827,0.005373447754,-0.004598412475,0,7,234.1438896,1,4,20,13.0,-0.001,206.2971254406281,407.562,143.57511599999998
C-1962,COCC(C)OC(=O)OC1=CC=C(NC(C)=O)C=C1,-2.48,19,51.0,7.487999999999999,-0.001346229658,0.0037323828129999,-0.015647560161,0,10,250.1432945,1,5,19,15.0,-0.001,216.61690770718428,419.173,148.251241
C-1264,OCCN(CCO)C(=O)COC(=O)C1=CC=CC=C1,0.43,19,51.0,4.325,-0.003898483162,0.01187007778,-0.0138101430719999,0,8,250.1432945,1,5,16,13.0,0.0,215.27311709004883,399.971,146.83338999999998
C-1275,OCC(CO)(CO)NC(=O)COC(=O)C1=CC=CC=C1,-1.27,20,54.0,10.251,-0.005783926016,0.018734622004,-0.0236627257109999,0,9,266.1426994,1,6,21,15.0,0.0,218.84338750423592,408.711,150.394523
C-556,NC(CC1=CC=C(C=C1)N(CCCl)CCCl)C(O)=O,-3.49,17,51.0,11.092,-0.001209021361,0.00590409816,-0.012085904882,0,9,287.0576581,2,2,22,16.0,0.0,242.66907664237567,467.934,170.397007
B-4226,CCCC(C)C(=O)Nc1ccc(C)c(Cl)c1,-4.4503,15,42.0,13.222,-0.0026266070579999,0.001606415151,-0.028744262182,0,7,221.5986124,1,1,9,10.0,0.0,206.74236164663083,406.35,142.989944
B-4240,CCCC(C)(C)C(=O)Nc1ccc(Cl)cc1,-4.0218,15,42.0,7.481,-7.5876583e-05,0.001967080717,-0.02141364642,0,6,221.5986124,1,1,13,12.0,0.0,207.95749917034271,396.624,144.249725
C-1246,COCCN(C(=O)CCl)C1=C(C)C=CC=C1C,-2.09,17,45.0,4.676,-0.000260562609,-0.001805317986,-0.00984765414,0,7,237.5980173,1,2,13,10.0,0.0,222.7745811908149,393.631,147.63994499999998
C-1730,O=C(NCN1CCCCC1)C2=CC=CC=C2,-2.15,16,42.0,8.267999999999999,-0.0016964128979999,0.001161127758,-0.0120421945469999,0,3,200.152378,2,1,10,12.0,0.0,191.6469403973413,328.345,131.952889
B-1810,O=C1NC2=C(CCC2)C(=O)N1C3CCCCC3,-4.5916,17,45.0,6.309,-0.002066604163,0.001858827194,-0.016221355313,0,4,216.151783,2,2,11,11.0,0.001,182.0509584535276,334.47900000000004,137.651078
A-5462,COCC(NC(C)=O)C(=O)NCc1ccccc1,-3.398457379,18,48.0,1.6130000000000002,-0.000867959583,0.000713374136,-0.006908391602,0,4,232.1511879,2,3,18,14.0,0.0,218.9300451332884,371.719,145.992344
C-261,CCC1(C(=O)NC(=O)NC1=O)C2=CCCCCC2,-3.0,18,48.0,12.666,-0.003317964041,0.007768433138,-0.028631063931,0,6,232.1511879,2,3,19,14.0,0.0,194.7983266626923,391.357,145.25893100000002
B-3454,NCCCCC(NC(=O)c1ccccc1)C(O)=O,-2.2845,18,48.0,8.785,-0.0020525885399999,0.004957220236,-0.012271250591,0,5,232.1511879,2,3,15,14.0,0.001,209.32135053909,410.271,142.90271299999998
F-814,CC1=NC=C(CO)C(C=NC(C(=O)O)C(C)C)=C1O,-1.6,19,51.0,10.211,-0.002487876572,0.008711423585,-0.024560314068,0,7,248.15059280000003,2,4,18,18.0,0.0,226.32129851330768,423.1880000000001,152.207373
B-2249,Cn1cnc2N(C)C(=O)N(CCCCC(C)=O)C(=O)c12,-0.5579999999999999,20,54.0,3.353,-0.003729605155,0.008651971302,-0.0189173210049999,0,8,260.1645943,4,3,16,19.0,-0.001,233.42047869608717,454.23,161.386034
C-2177,CN1C(=O)N(C)C2=C([N](COC(=O)C(C)(C)C)C=N2)C1=O,-2.17,21,57.0,1.59,-0.0044057241769999,0.013957320813,-0.0152932940099999,0,12,276.16399920000003,4,4,15,13.0,0.0,250.9108936880025,386.489,155.92130600000002
C-2205,CCCCC(=O)OC[N]1C=NC2=C1C(=O)N(C)C(=O)N2C,-2.37,21,57.0,4.457,-0.0031930888929999,0.008473247294,-0.015019780423,0,10,276.16399920000003,4,4,18,17.0,0.001,255.87717158922229,463.1880000000001,164.914964
A-463,CC(C)c1ccc(cc1)C(C)CC=O,-3.459862901,14,36.0,1.453,-0.001249541003,0.0015579043539999,-0.007402219723,0,2,172.1389716,0,1,9,12.0,0.0,178.5506727099013,362.905,120.970518
A-391,CC(C)c1cccc(c1)C(C)CC=O,-3.677346846,14,36.0,2.339,-0.001325802052,0.001561754696,-0.008806100524,0,2,172.1389716,0,1,8,14.0,-0.001,178.4967065912497,363.09,119.020734
A-1740,CC(C)(C)c1ccc(CCC=O)cc1,-3.158832906,14,36.0,9.677,-0.0003610218899999,0.001682448763,-0.010981639843,0,3,172.1389716,0,1,9,10.0,0.0,174.32154448195027,350.45300000000003,118.373092
A-1515,C/C=C/C(=O)C1=C(C)C=CCC1(C)C,-3.005248988,14,36.0,10.929,-0.001431182966,0.000429635704,-0.019554824761,0,3,172.1389716,0,1,5,12.0,0.0,182.61483684691845,321.103,121.248044
A-21,CC(C)(C)c1ccc(OCC2CO2)cc1,-3.43023888,15,39.0,12.55,-7.7537533e-05,0.001511471023,-0.016496728268,0,5,188.1383765,0,2,8,9.0,0.0,179.02571630944794,365.885,119.681706
A-792,CC(C)(C)C(=O)OCCc1ccccc1,-3.675280089,15,39.0,7.513,-0.002013827322,0.001386090915,-0.013526863304,0,5,188.1383765,0,2,12,11.0,0.0,184.21186681718825,367.109,121.817685
A-600,CCC(=O)OC1C=CC2C3CCC(C3)C12,-3.558592794,15,39.0,6.448,-0.000280634513,0.000710943176,-0.0123802220249999,0,5,188.1383765,0,2,12,8.0,0.0,178.84052023770474,332.30800000000005,122.039809
C-1710,CCCCCCC1=CC=C(C=C1)C(O)=O,-3.65,15,39.0,10.226,-0.005018766374,0.006366999044,-0.037164396751,0,3,188.1383765,0,2,14,13.0,0.001,174.87245116784317,382.795,126.742425
A-1370,CC(C)Cc1ccc(cc1)C(C)C(O)=O,-3.992248355,15,39.0,1.155,-0.000896386654,0.002814564439,-0.006497076715,0,4,188.1383765,0,2,14,12.0,0.0,192.4260872892941,384.142,128.801612
B-1596,CCCCCCOC(=O)c1ccc(O)cc1,-3.949,16,42.0,3.292,-0.003821058995,0.007470733209,-0.014512760212,0,6,204.1377815,0,3,14,13.0,-0.001,184.05876426530327,397.251,128.073228
A-1474,CCCCCCOC(=O)c1ccccc1O,-5.045878208,16,42.0,7.305,-0.002686237806,0.004367349744,-0.021747231193,0,6,204.1377815,0,3,15,12.0,0.0,184.0343874020192,387.96,131.949959
A-1867,CCCCOCCOC(=O)c1ccccc1,-3.3224225360000004,16,42.0,5.066,-0.0019303589259999,0.002936207958,-0.012134521818,0,4,204.1377815,0,3,16,11.0,0.0,185.7411822607564,398.585,131.60790500000002
A-4874,CC1(C)COC(=O)C2CC=CCC2C(=O)OC1,-3.004181056,17,45.0,7.143,-0.002446822725,0.009114024854,-0.010321872225,0,8,220.1371864,0,4,12,13.0,0.001,197.5429451243044,343.55400000000003,135.763401
C-662,CCOC1OC2=CC=C(O[S](C)(=O)=O)C=C2C1(C)C,-3.42,18,51.0,6.374,-0.006322605915,0.012797582153,-0.022850034363,0,11,268.2013787,0,5,9,12.0,0.0,234.5337335403479,413.829,162.682159
C-472,OCC1OC(OC2=CC=CC=C2CO)C(O)C(O)C1O,-0.85,20,54.0,6.063,-0.005520838219,0.023576574362,-0.022982241828,0,12,268.1354011,0,7,14,12.0,0.001,208.13810228605783,385.263,148.437793
B-795,OC[C@H]1O[C@@H](Oc2ccccc2CO)[C@H](O)[C@@H](O)[C@@H]1O,-0.8547,20,54.0,22.958,-0.007066439967,0.022878297236,-0.071953026686,0,11,268.1354011,0,7,17,13.0,0.001,205.4711741089817,400.953,149.431753
B-2136,OCC(O)C1OC(Oc2ccccc2)C(O)C(O)C1O,-1.5537,20,54.0,13.987,-0.005803340431,0.021432948697,-0.045240590418,0,10,268.1354011,0,7,20,17.0,0.0,206.67014985429967,379.151,148.848227
B-3094,CO[P](=S)(OC)SCC(=O)N(C(C)C)c1ccc(Cl)cc1,-4.4321,20,57.0,1.126,-0.0002326516639999,0.002616116961,-0.002749699072,0,14,348.7007591,1,3,14,12.0,0.0,298.5766944507764,502.288,218.404578
B-3285,CCCC(=O)N(CS[P](=S)(OC)OC)c1ccccc1Cl,-5.204,20,57.0,8.835,-0.002267716803,0.004457196835,-0.021715046053,0,14,348.7007591,1,2,17,14.0,0.0,294.49816048312334,485.884,220.068048
C-1957,CCCCCCCC(=O)OCN1C(=O)NC=C(F)C1=O,-3.29,20,54.0,5.535,-0.004103262427,0.0110756816809999,-0.019696651221,0,12,267.148996,2,4,13,13.0,0.0,218.634988438822,455.864,153.554318
C-1863,CCCCCCC(=O)NNC(=O)C1=CC=NC=C1,-2.1,18,48.0,10.085,-0.00324516431,0.001999964635,-0.030088338419,0,6,230.1584862,3,2,14,14.0,0.0,207.7926102232652,417.567,146.567704
F-898,CCCCCN(C)N=NC1=CC=C(C(=O)O)C=C1,-2.37,18,48.0,13.773,-0.007836191741,0.002489387258,-0.081503089886,0,6,230.1584862,3,2,10,13.0,-0.001,104.32230493520132,468.979,147.261456
F-871,CCC(C)CN(C)N=NC1=CC=C(C(=O)O)C=C1,-1.79,18,48.0,16.514,-0.006719409456,0.004758222407,-0.083295499375,0,7,230.1584862,3,2,18,15.0,0.0,211.682930430002,430.914,146.988855
B-1749,CCCN(CCC)c1c(cc(C)cc1[N+]([O-])=O)[N+]([O-])=O,-2.9663,20,54.0,2.008,-0.006482931379,0.012389428669,-0.031147063298,0,11,262.157296,3,4,14,15.0,0.0,230.68129259592095,437.329,159.4275
B-2875,CCC(CC)Nc1c(cc(C)c(C)c1[N+]([O-])=O)[N+]([O-])=O,-5.9721,20,54.0,7.331,-0.005922250542,0.011816398422,-0.035942085859,0,11,262.157296,3,4,18,14.0,0.0,225.40133085213415,413.02,156.31941
G-1058,CSCS(=O)CC(CO)NC(=O)C=Cc1c(C)[nH]c(=O)[nH]c1=O,-1.981,23,63.0,9.978,-0.0075851147219999,0.020292558244,-0.0298681989179999,0,10,342.2862757,3,5,28,20.0,0.0,266.0952979511027,569.731,203.521651
B-2094,CCCN(CCC)c1c(cc(cc1[N+]([O-])=O)[S](C)(=O)=O)[N+]([O-])=O,-5.7601,22,63.0,6.075,-0.015762349886,0.022855523629,-0.066307789017,0,14,326.2208933,3,6,22,20.0,0.0,265.7829283728934,474.157,189.267025
E-714,CCCCCCOC(=O)c1ccc(N)cc1,-3.95,16,42.0,3.54,-0.00211266921,-0.001269771658,-0.019243379493,0,6,202.1450798,1,2,14,14.0,0.0,187.57219563383623,399.402,133.567327
B-3376,CCCCCCCOC(=O)c1cccnc1,-2.7429,16,42.0,5.898,-0.001919506637,-0.0004504180099999,-0.015023630373,0,5,202.1450798,1,2,11,12.0,0.0,187.008808606972,402.382,133.223577
B-2969,CC(C)Cc1ccc(cc1)C(C)C(=O)NO,-3.044,16,42.0,8.656,-0.000914796064,0.003264531689,-0.006625077776,0,4,202.1450798,1,2,16,13.0,0.0,203.3447402184001,406.311,134.529099
B-3079,CN(C)C(=O)SCCCCOc1ccccc1,-3.9266,17,45.0,10.424,-0.002584656326,0.004739247409,-0.0215180771529999,0,6,234.2098672,1,2,14,15.0,0.0,213.7764758356221,407.213,152.113159
F-550,CCCN(CCC)S(=O)(=O)C1=CC=C(C(=O)O)C=C1,-4.02,19,51.0,11.556,-0.012113046679,0.0161637395329999,-0.075307322928,0,10,266.208677,1,4,14,13.0,0.0,223.67875422267457,425.237,165.549586
B-1595,CCCCCCCc1ccccc1,-5.5959,13,33.0,1.384,-1.5019450000000002e-06,-0.005098435162,-0.013236470892,0,1,156.1395667,0,0,7,9.0,0.0,160.88685423290238,355.521,117.103056
C-1277,CCCCCCCCNC(=O)N1C=C(F)C(=O)NC1=O,-4.18,20,54.0,4.698,-0.003773806891,0.010919375855,-0.019448209975,0,9,265.1562942,3,3,16,16.0,0.0,224.50640142430612,470.593,156.447406
F-90,CCCCCCCNC(=O)C1=CN=CC=C1,-3.2,16,42.0,3.818,-0.002072674345,-0.001589144408,-0.017899687559,0,4,200.152378,2,1,8,8.0,0.001,187.88436778177865,404.892,135.100455
I-72,Nc1ccc(C(OCCN(CC)CC)=O)cc1,-1.72,17,45.0,2.092,-0.001872758187,-0.001641584052,-0.023346235853,0,4,216.151783,2,2,15,14.0,-0.001,199.81024290518425,416.608,141.927764
C-1690,O=C1NC(=O)C2(CCCCCCCCC2)C(=O)N1,-4.59,18,48.0,2.693,-0.002238019431,0.007747010945,-0.001428617659,0,4,232.1511879,2,3,24,16.0,-0.001,205.0788538673871,355.315,145.490703
C-1346,CCCC(=O)N(C)C1=CC=C(C=C1)[S](=O)(=O)N(C)C,-2.16,19,51.0,7.277,-0.005595226696,0.007100328223,-0.0309539703329999,0,9,264.2159753,2,3,16,16.0,0.0,245.85762120139265,432.905,165.65925
C-1676,CNC(=O)NC(=O)C(C)(C(=O)OC)C1=CCCCC1,-2.68,19,51.0,11.928,-0.004047988877,0.009624783882,-0.03178293418,0,9,248.15059280000003,2,4,20,15.0,0.0,222.7349454154235,408.667,146.407734
F-795,C#CCC(NC(=O)OC(C)(C)C)C(=O)NCC(=O)OC,-1.45,20,54.0,5.686,-0.001425374384,0.009463546102,-0.006438927931,0,8,264.1499977,2,5,23,15.0,0.001,250.9022188394248,415.528,153.62400300000002
A-1861,CC(=O)/C=C/C1C(=CCCC1(C)C)C,-3.258677936,14,36.0,5.356,-0.001080241915,0.001738367817,-0.008235319895,0,2,172.1389716,0,1,8,11.0,0.0,187.35379597307423,349.87699999999995,121.929666
A-1620,CC(=O)/C=C/C1=C(C)CCCC1(C)C,-3.079863818,14,36.0,4.307,-0.0003783654899999,0.001794661771,-0.008920369209,0,2,172.1389716,0,1,7,9.0,0.0,188.81689267743343,342.675,119.741604
A-234,CC(C)=CCC\C(C)=C\C=C\C(C)=O,-3.297212067,14,36.0,8.472000000000001,-0.0009717152499999,0.0009456979739999,-0.012177150167,0,2,172.1389716,0,1,3,10.0,0.001,199.01154086446988,404.4,123.247005
A-1341,CC(C)CCOCCc1ccccc1,-3.933735783,14,36.0,4.063,-4.482028e-06,-0.002810691847,-0.007676497904,0,2,172.1389716,0,1,11,11.0,0.0,172.4793222928347,367.494,120.661731
A-4982,CCCCCCCc1ccc(O)cc1,-3.659701705,14,36.0,4.053,-0.002199741859,0.001125118937,-0.019895481863,0,3,172.1389716,0,1,8,10.0,0.0,167.7393999900539,370.875,122.308811
A-2179,C1COC2(C1)CC3CC2C4CCCC34,-5.94156112,14,36.0,3.108,-0.000335409294,-0.00202976264,-0.008988796313,0,4,172.1389716,0,1,9,10.0,0.0,164.6700754958412,306.573,113.69962
A-4960,CC1(C)CCC=C(C1)C(=O)CCC=C,-3.5342474860000004,14,36.0,7.519,-0.0017642850829999,0.000413561639,-0.018992302965,0,5,172.1389716,0,1,5,9.0,0.0,175.93808191453675,344.031,117.071455
A-1700,C/C=C/C(=O)C1C(=CCCC1(C)C)C,-3.137855765,14,36.0,7.086,-8.6270938e-05,0.000659095989,-0.018327156483,0,2,172.1389716,0,1,8,9.0,0.0,189.3976285559888,351.621,123.796885
A-363,C/C=C/C(=O)C1C(C)C=CCC1(C)C,-3.396366501,14,36.0,9.091,-0.001193510462,0.000351778217,-0.019551206371,0,4,172.1389716,0,1,9,12.0,-0.001,188.3988179805636,334.66,121.3611
A-2380,CC(C)C1CC2=C(C)CC1C(C2)C=O,-3.850854284,14,36.0,5.705,-0.000402161346,0.0021475056159999,-0.005843796269,0,2,172.1389716,0,1,10,11.0,0.0,171.6103606383105,318.232,119.893584
A-1931,CC(C)(C)OOC(C)(C)c1ccccc1,-4.29093415,15,39.0,4.937,-0.001056766779,0.000645444187,-0.008894196146,0,4,188.1383765,0,2,12,14.0,0.0,204.7389916400636,334.921,124.775973
A-301,CCCOC(C)OCCc1ccccc1,-3.384192904,15,39.0,6.739,-0.002488548028,0.004942188706,-0.010320405756,0,3,188.1383765,0,2,13,11.0,0.0,187.54427911086864,320.374,125.783089
A-689,CC1(C)[C@H]2CC[C@]1(C)C(C2)OC(=O)C=C,-4.583092455,15,39.0,8.521,-0.000340648551,0.001942411134,-0.0176167666149999,0,5,188.1383765,0,2,11,12.0,0.0,169.36937597301747,412.64,130.059311
B-1290,CC(=O)OCC(COC(C)=O)(COC(C)=O)COC(C)=O,-1.5686,21,57.0,7.438,-0.001446893626,0.010600810743,-0.012790606177,0,13,284.13480610000005,0,8,15,14.0,-0.001,250.9873505880876,399.828,155.796001
D-2053,CCO[P](=S)(NC(C)CC)Oc1cc(C)ccc1[N+]([O-])=O,-4.814,21,57.0,8.121,-0.004975163526,0.007746402792,-0.0250242912969999,0,12,311.1891422,2,4,16,15.0,0.0,263.120557336759,426.372,192.428433
F-718,CCN(CC)NC(=O)NC1=C(C)C=CC=C1C,-1.09,17,45.0,8.139,-0.0014683053769999,-0.003293861133,-0.024616757312,0,7,214.1590812,3,1,13,10.0,0.0,204.7154870351552,395.713,143.263817
C-2488,CCN(C1CC(C)[S](=O)(=O)C2=C1C=C(S2)[S](N)(=O)=O)C(=O)CNC,-1.21,23,66.0,13.386,-0.0192892850809999,0.02152529029,-0.083890866722,0,17,374.3510632,3,5,17,14.0,0.0,300.0410463727423,462.364,223.270058
A-3294,CC(O)CN(CC(C)O)c1ccc(C)cc1,-1.5038218,16,42.0,8.998,-0.0029960690259999,0.006849690051,-0.025452902626,0,3,202.1450798,1,2,14,12.0,0.0,201.09961018133583,367.425,132.961141
B-2539,CC(C)(C)NCC(O)c1ccc(O)c(CO)c1,-1.2298,17,45.0,2.491,-0.003524822588,0.01167238608,-0.013656044136,0,7,218.1444847,1,3,14,12.0,0.0,205.01260183684735,370.888,134.31195300000002
B-4253,CC(C)O[P](=O)(OC(C)C)SCc1ccccc1,-2.8579,17,48.0,4.232,-0.005549379884,0.004792411959,-0.010699360194,0,7,267.1763309,0,3,13,15.0,0.0,234.63941889078896,406.586,172.47188
B-4241,CCCO[P](=O)(OCCC)Oc1ccc(SC)cc1,-3.3865,18,51.0,9.807,-0.006906496502,0.005382019759,-0.016982198609,0,8,283.1757358,0,4,20,13.0,0.0,245.75067210996303,457.72,177.670106
A-1317,CC[N+](CC)(CC)Cc1ccccc1,-0.007265664,14,36.0,3.263,-6.512269999999999e-07,-0.0047032441299999,-0.095410817352,0,1,170.1462699,1,0,13,9.0,0.0,183.02363090280252,323.844,121.644958
E-684,O=C(NC1C2C3CCCC3C(C1)C2)N(C)C,-3.01,16,42.0,6.394,-0.002320931917,0.000339742738,-0.016136209663,0,5,200.152378,2,1,13,11.0,0.0,191.06610837780383,366.941,129.548324
C-207,CCCCCCCC1(CC)C(=O)NC(=O)NC1=O,-3.43,18,48.0,19.204,-0.005529296405,0.009420110579,-0.045660866212,0,5,232.1511879,2,3,13,15.0,0.0,218.8543452273359,432.644,145.205131
I-75,S(Cc1oc(CN(C)C)cc1)CCN\C(NC)=C\N(=O)=O,-2.5,21,57.0,28.969,-0.008697729554,0.009496955204,-0.087359977902,0,9,292.2293817,4,3,18,21.0,-0.001,255.91369190164872,518.457,181.367507
C-2011,CNC(/NCCSCC1=CC=C(CN(C)C)O1)=C/[N+]([O-])=O,-2.5,21,57.0,19.91,-0.007987462039,0.008821426826,-0.069971577563,0,8,292.2293817,4,3,18,18.0,0.0,255.7387178127858,512.734,181.421212
B-3431,CCOC(=O)CSc1nc(nn1C(=O)N(C)C)C(C)(C)C,-2.861,21,57.0,9.975,-0.003495415253,0.006936970902,-0.030090867604,0,9,292.2293817,4,3,21,18.0,0.001,266.73852193867054,439.775,176.089958
B-4250,CCO[P](=O)(NC(C)C)Oc1ccc(SC)c(C)c1,-2.9648,18,51.0,12.234000000000002,-0.004399617191,0.003273561422,-0.02874285333,0,9,281.1830341,1,3,19,16.0,0.0,246.31837617396027,457.049,180.829553
A-794,CC(=O)CCC1=C(C)CCCC1(C)C,-3.655044576,14,36.0,5.361000000000001,-0.001076006647,0.001744647891,-0.008201019125,0,2,172.1389716,0,1,8,11.0,0.0,187.3615373144372,349.423,121.931416
A-909,CC(C)=CCC\C(C)=C\CCC(C)=O,-3.697448425,14,36.0,6.499,-0.0004259842299999,-0.000793018213,-0.0119864617559999,0,3,172.1389716,0,1,5,10.0,-0.001,188.1085290004898,393.995,122.291278
A-2269,CC1(C)CCCC(C1)C(=O)CCC=C,-4.77931051,14,36.0,3.003,-0.001959620255,0.00051740897,-0.012453750011,0,3,172.1389716,0,1,14,9.0,0.0,178.67786561836257,362.713,121.903525
B-2749,CC(C)(O)CCCC1=CCC(CC1)C=O,-1.5376,15,39.0,11.473,-0.00067191296,0.0052289220179999,-0.010704417906,0,4,188.1383765,0,2,11,10.0,0.0,179.02851384345,371.027,123.284308
A-526,CC(C)(C)C1CCC(CC1)OC(=O)C=C,-3.539328096,15,39.0,4.9510000000000005,-0.000197417687,0.000346442301,-0.006976170144,0,5,188.1383765,0,2,10,11.0,0.0,185.9097588714089,346.641,124.281861
A-5050,CCC(=O)OC(C)(CCC=C(C)C)C=C,-4.382357893,15,39.0,5.303999999999999,-0.000777643892,-0.000992669706,-0.015856875614,0,7,188.1383765,0,2,6,10.0,0.0,206.5005501733701,397.333,127.621493