Name,SMILES,Solubility,AtomNum,DegFreedom,Dipole,Ghb,Gsasa,Gsolv,HNum,LP,MolWt,NNum,ONum,PiCenters,PiDeloc,Quadrupole,Volume,SASA,Polarizabilty
C-1902,CCCCCCCCC(=O)NNC(=O)C1=CC=NC=C1,-3.52,20,54.0,7.845,-0.003152921652,0.0019870206909999,-0.0245781105679999,0,6,254.179958,3,2,14,17.0,0.0,231.7980460611357,461.841,164.654349
F-900,CCCCCCCN(C)N=NC1=CC=C(C(=O)O)C=C1,-3.39,20,54.0,29.236,-0.008529951428,0.002851608647,-0.13456660413,0,5,254.179958,3,2,13,15.0,0.001,237.93693356603745,487.425,165.690686
C-1999,CC1(C)SC2C(N=CN3CCCCCC3)C(=O)N2C1C(O)=O,-4.5,22,60.0,35.861999999999995,-0.008511638087,0.011226333903,-0.121825468564,0,8,302.2441503,3,3,25,16.0,0.0,252.54870656405572,476.68,188.946573
B-2775,CCCN(CCC)c1c(cc(cc1[N+]([O-])=O)C(C)C)[N+]([O-])=O,-6.4491,22,60.0,1.955,-0.006933894439,0.0120984273799999,-0.039850621298,0,12,286.1787678,3,4,12,14.0,-0.001,250.8171379044259,473.379,176.159864
C-2028,CC1(C)SC2C(NC(=O)C3(N)CCCCC3)C(=O)N2C1C(O)=O,-1.04,23,63.0,19.084,-0.008423959777,0.01414953838,-0.0919249411439999,0,10,318.24355519999995,3,4,22,18.0,-0.001,209.6242894657412,503.291,194.13461
C-791,CCN1CCCC1CNC(=O)C2=C(OC)C=CC(=C2)[S](N)(=O)=O,-2.88,22,63.0,6.295,-0.0120533432969999,0.0112784213189999,-0.048497734144,0,9,318.24355519999995,2,4,21,19.0,-0.001,273.7904906128915,439.9380000000001,193.727564
B-2796,CC(C)N(Cc1ccccc1)C(=O)C(C)(C)C,-2.4704,17,45.0,5.829,-0.002005924898,0.0005578282929999,-0.018052826382,0,6,210.1671466,1,1,8,9.0,0.0,225.28136931719936,341.371,139.408016
B-4556,CCCCCCCCOC(=O)c1ccc(N)cc1,-5.3999,18,48.0,5.649,-0.0022076360149999,-0.001942772034,-0.024807047713,0,6,226.1665516,1,2,14,15.0,0.0,211.63508214779225,446.526,151.568646
B-3361,CCCCCCCCCOC(=O)c1cccnc1,-3.0958,18,48.0,6.85,-0.0019541775199999,-0.001121279109,-0.0171365011039999,0,5,226.1665516,1,2,9,15.0,0.001,211.00782958245185,448.946,151.21795
A-1449,CCCCC(CC)COC(=O)c1ccc(N)cc1,-5.054393659,18,48.0,12.694,-0.000164594418,3.6839575e-05,-0.021482530101,0,5,226.1665516,1,2,20,12.0,0.001,226.95562683658864,446.379,152.32771200000002
F-780,C=CCC1=C(OCC(O)CNC(C)C)C=CC=C1,-2.88,18,48.0,5.888,-0.002277930172,0.001581683302,-0.020260649339,0,5,226.1665516,1,2,13,13.0,-0.001,222.95174883797213,428.006,152.66135
F-804,CCCCCCCC1=CC(=O)N(CCC(=O)O)C=C1,-4.4,19,51.0,35.66,-0.010670754942,0.011594622781,-0.128200736085,0,7,242.1659565,1,3,14,16.0,0.0,217.25842346683123,467.449,153.559967
B-374,CCOc1ccc(cc1)C(=O)OCCN(CC)CC,-2.7145,19,51.0,3.352,-0.0018400590539999,0.002144452296,-0.019347113741,0,7,242.1659565,1,3,17,16.0,-0.001,223.77531585834,462.532,156.82856999999998
C-1219,CC(C)NCC(O)COC1=C(OCC=C)C=CC=C1,-0.32,19,51.0,7.186,-0.002383581481,0.002811764244,-0.020236404291,0,6,242.1659565,1,3,14,17.0,0.0,231.9987071964352,442.256,157.72353700000002
E-1159,CC1CC(C)C(=O)C(C1)C(O)CC2CC(=O)NC(=O)C2,-1.13,20,54.0,14.875,-0.005917460729,0.016150770822,-0.050011826645,0,8,258.1653614,1,4,18,12.0,0.0,232.0247849490697,408.033,159.984118
B-4448,C[C@H]1C[C@H](C)C(=O)[C@@H](C1)[C@H](O)CC2CC(=O)NC(=O)C2,-1.127,20,54.0,13.902,-0.004985166429,0.0133983758299999,-0.030570199715,0,9,258.1653614,1,4,14,16.0,0.0,228.92675311555683,411.61300000000006,158.915491
B-3295,CCN(C(C)C(C)C)C(=O)SCc1ccccc1,-4.7337,17,48.0,6.158,-0.000201669015,-0.001175961707,-0.012222681833,0,6,242.231934,1,1,12,16.0,0.0,232.1538014473323,377.197,164.167895
A-421,CC1(C)CCCC2(C)C3CCC(C13)C2=C,-4.412762427,15,39.0,7.335,-2.025189e-06,-0.004849594816,-0.01354185351,0,1,180.1610385,0,0,6,11.0,0.0,186.14958670129133,338.16900000000004,133.836044
A-2225,C\C1=C/CCC(=C)[C@H]2CC(C)(C)[C@@H]2CC1,-6.337261665,15,39.0,5.979,-1.621876e-06,-0.0048832958,-0.008269510834,0,2,180.1610385,0,0,5,10.0,0.0,204.65764211612247,340.519,128.60865
A-5505,CC(C)=CCC\C(C)=C\CCC(=C)C=C,-6.310389519,15,39.0,6.327999999999999,-3.160387e-06,-0.006074651137,-0.018474798751,0,3,180.1610385,0,0,3,11.0,0.001,206.60174158031745,423.594,136.353599
B-3263,CCCCCCCCCNC(=O)c1cccnc1,-3.1398,18,48.0,3.2880000000000003,-0.002198674971,-0.002322981223,-0.021334574702,0,4,224.17384980000003,2,1,7,9.0,-0.001,211.93501267010743,451.733,152.932614
F-665,CCN(CC)C(C)C(C)OC(=O)C1=CC=C(N)C=C1,-3.42,19,51.0,9.416,-0.001605147484,-0.002407058413,-0.027426833219,0,4,240.1732548,2,2,18,15.0,0.0,239.7128736889693,448.48800000000006,161.173633
C-290,O=C1NC(=O)C2(CCCCCCCCCCC2)C(=O)N1,-5.8,20,54.0,29.61,-0.006998418308,0.009513168647,-0.095112587579,0,6,256.1726597,2,3,17,16.0,0.001,218.12345375379647,394.872,159.034779
C-1680,OC(=O)CCCNC(=O)N[C]12C[CH]3[CH2]C([CH2][CH](C3)C1)C2,-1.6,20,54.0,16.269000000000002,-0.00597580682,0.008132290133,-0.044638925816,0,6,256.1726597,2,3,17,14.0,0.0,218.77759793255024,401.812,155.435521
C-1372,CCCCCC(=O)N(C)C1=CC=C(C=C1)[S](=O)(=O)N(C)C,-2.95,20,57.0,16.308,-0.007223211344,0.008243832927,-0.039699751934,0,9,288.23744710000005,2,2,18,15.0,-0.001,264.4312224152368,473.895,184.231283
B-4252,CCO[P](=S)(NC(C)C)Oc1ccccc1C(=O)OC(C)C,-4.1939,22,60.0,10.488,-0.0028243676919999,0.001731422911,-0.0283769155219999,0,10,321.2039108,1,4,15,13.0,0.001,284.56655883861555,503.571,205.236653
A-2087,Cc1cc(c(O)c(c1)C(C)(C)C)C(C)(C)C,-5.462311288,16,42.0,3.329,-0.000833188238,-0.001924954713,-0.012542727341,0,5,196.1604434,0,1,10,11.0,0.001,217.27244046668147,359.87,136.527027
A-871,CC(CC1CCCC1=O)C2CCC(=CC2)C,-4.680367049,16,42.0,11.742,-0.001416896361,0.0010364765549999,-0.009857690194,0,2,196.1604434,0,1,13,12.0,0.0,207.1010871613882,399.99,138.857793
A-857,CC1(C)CCC2OC23C(C)(C)C4CCC13C4,-4.6529288,16,42.0,4.924,-0.00036268181,-0.001480868652,-0.016139342099,0,6,196.1604434,0,1,7,11.0,0.0,195.9597116766241,349.776,130.831592
A-53,CC(C)CCCCCCc1ccc(O)cc1,-4.587250025,16,42.0,5.441,-0.002398813217,0.000461172719,-0.024844243978,0,3,196.1604434,0,1,8,13.0,0.0,200.5701931613172,417.598,140.303776
A-1587,CC1(C)C2CCC3(C2)C1C(=O)CCC3(C)C,-4.0976122130000014,16,42.0,5.13,-0.001055250106,-0.0007876678419999,-0.016587039207,0,5,196.1604434,0,1,8,11.0,0.0,206.034329256914,352.175,135.228039
A-434,CCCCCCCCCc1ccc(O)cc1,-4.49802684,16,42.0,5.457999999999999,-0.002396733422,0.000461386112,-0.024829758946,0,3,196.1604434,0,1,8,11.0,0.0,191.71337182027543,417.61,140.30121100000002
A-1651,CC1=C(/C=C/C(C)(O)C=C)C(C)(C)CCC1,-3.164147933,16,42.0,8.316,-0.001046057753,0.001037175378,-0.014456640469,0,3,196.1604434,0,1,9,11.0,0.0,213.34062413560227,382.474,137.554855
A-5072,CC1CCC2(C)C(=CCCC2(C)C1OC=O)C,-5.0311421130000005,17,45.0,0.6709999999999999,-0.000668240659,0.002011016479,-0.001791763757,0,3,212.1598483,0,2,15,14.0,0.0,218.4061785060741,340.589,143.671638
A-2451,CC(=O)OC[C@H]1CCC=C(CCC=C(C)C)C1,-4.975624785,17,45.0,7.579,-0.000928188894,-2.7036051000000003e-05,-0.01748652121,0,4,212.1598483,0,2,12,14.0,0.0,212.8721154458624,431.591,143.049767
A-1339,CC(C)(C)c1cc(CO)cc(c1O)C(C)(C)C,-4.012782103999999,17,45.0,11.702,-0.000962880363,0.004446837881,-0.025471812816,0,5,212.1598483,0,2,15,10.0,-0.001,216.09029311869824,378.357,138.098374
A-1608,CCCCCC1CC(=O)C=C(C)C1C(=O)OCC,-3.187166345,18,48.0,7.212999999999999,-0.00285331118,0.005181534822,-0.027421404889,0,6,228.1592533,0,3,12,14.0,0.0,212.44048540480813,423.376,147.708354
A-673,CCCCCC1=C(CCC1CC(=O)OC)OC(C)=O,-3.721988672,19,51.0,2.352,-0.001338693193,0.004060565435,-0.0162086802459999,0,7,244.1586582,0,4,11,15.0,0.0,225.83572383340007,430.756,155.70046200000002
A-3751,CC(COCC(C)OC(=O)C=C)OCC(C)OC(=O)C=C,-1.875569091,21,57.0,3.303,-0.002286021483,0.007302149739,-0.011753538845,0,10,276.157468,0,6,21,14.0,0.0,250.78400917537587,479.782,164.857456
B-2823,COCCc1ccc(OCC(O)CNC(C)C)cc1,-1.1992,19,51.0,16.396,-0.002860900293,0.003268457968,-0.040628234545,0,5,242.1659565,1,3,15,13.0,0.0,231.14517334098372,449.807,158.135781
E-961,C1CCN2CC(C3)C4CCCCN4CC3C2C1,-1.89,17,45.0,5.112,-2.78289e-07,-0.005809923385,-0.008245574474,0,0,208.1744449,2,0,13,14.0,0.0,195.65850125459588,344.525,147.68108600000002
B-344,C1CCN2C[C@@H]3C[C@@H](CN4CCCC[C@H]34)[C@@H]2C1,-1.8871,17,45.0,2.697,-7.0381e-07,-0.005870297291,-0.006837106069,0,0,208.1744449,2,0,14,17.0,0.0,195.83016405071865,343.61300000000006,147.623773
C-246,CCCCCCCCCC1(CC)C(=O)NC(=O)NC1=O,-4.46,20,54.0,25.769,-0.0055311686919999,0.008765089505,-0.0571357820909999,0,5,256.1726597,2,3,16,18.0,0.0,240.996339922662,487.332,163.885174
A-818,C[C@H]1CCC2(O)C(C)(C)C3CC[C@@]2(C)C1C3,-3.72590382,16,42.0,11.878,-0.0017027517269999,0.000271546642,-0.028126478095,0,2,196.1604434,0,1,10,13.0,0.0,192.53383694250928,341.626,138.90724699999998
A-5036,CC(O)C(C)(C)\C=C\C1CC=C(C)C1(C)C,-4.216746334,16,42.0,6.962000000000001,-0.00043537307,0.000598067084,-0.013431592077,0,3,196.1604434,0,1,16,14.0,0.0,214.2860629999828,426.087,137.645783
A-1312,CC(C)=CCC\C(C)=C\CCC(C)(O)C=C,-3.985352266,16,42.0,5.021,-0.000271375786,-0.001756342315,-0.011891970438,0,5,196.1604434,0,1,7,13.0,0.0,215.2097552389992,433.425,138.86373500000002
A-884,CCOC1(C)CCC2C(=C)C1CCC2(C)C,-4.734296245,16,42.0,6.584,-6.3037359e-05,-0.002699939007,-0.019912771006,0,3,196.1604434,0,1,14,12.0,0.0,212.9043558779196,357.411,140.74597
A-1482,CC(=C)[C@@H]1C[C@@H](CC[C@@]1(C)C=C)C(C)(C)O,-3.059278372,16,42.0,6.327999999999999,-0.000181075667,-0.0029443907069999,-0.017486360819,0,5,196.1604434,0,1,5,11.0,0.0,202.79914386133945,428.754,138.46391599999998
A-1405,O=C1CCCCCCCCCC\C=C/CC1,-4.883187113,16,42.0,10.184,-0.003136627388,0.001248430051,-0.020471151635,0,2,196.1604434,0,1,7,13.0,-0.001,188.4303814918631,359.173,139.37931
A-2142,C\C=C(/C)C(=O)OCCC(C)CCC=C(C)C,-5.791792688999998,17,45.0,11.26,-0.002204437132,-2.3429682e-05,-0.0293452029749999,0,7,212.1598483,0,2,8,11.0,0.0,222.1935917539914,449.879,145.807122
A-1705,O=C1CCCCCCCCCCCC(=O)OCCO1,-4.261695179,19,51.0,14.975,-0.005617833682,0.009553918724,-0.031945775553,0,8,244.1586582,0,4,11,13.0,0.0,213.62367507100345,400.3080000000001,153.868047
A-5196,CN(C)Cc1cc(CN(C)C)c(O)c(CN(C)C)c1,0.505516371,19,51.0,4.386,-0.0019904842559999,-0.0026400021269999,-0.035955979717,0,5,238.180553,3,1,15,10.0,0.0,252.12614633364456,472.473,162.80326200000002
A-2859,CCCCCCCC1N(CCO)C=CN1CCC([O-])=O,0.212706758,20,54.0,15.798,-0.011070861335,0.011614528376,-0.122532205851,0,7,256.1726597,2,3,17,14.0,0.001,227.7809248234656,482.225,167.473612
B-3092,CCOC(=O)N1CCN(CC1)CN2CCN(CC2)C(=O)OCC,-0.8443,23,63.0,4.486000000000001,-0.004086250556,0.004652123868,-0.036156086885,0,9,300.185471,4,4,17,14.0,0.0,261.6443544384583,486.695,183.518892
A-1432,CC(C)CCCC(C)CCCC(C)(O)C#C,-4.953059618999999,16,42.0,6.452999999999999,-0.0017193753589999,-0.000181671476,-0.018747895594,0,5,196.1604434,0,1,6,12.0,0.0,216.95658200161935,427.707,138.609454
A-1489,CC(C)(C1CCC(O)CC1)C2CCC(O)CC2,-3.097609749,17,45.0,1.533,-0.002930757778,0.007442780069,-0.0129385752209999,0,5,212.1598483,0,2,16,13.0,0.001,204.91637589298043,385.807,137.408551
A-5487,CCCCCCCCCCCCOC(=O)C=C,-4.380910978,17,45.0,5.361000000000001,-0.0004990966659999,0.000411112033,-0.013063665943,0,4,212.1598483,0,2,6,14.0,0.001,212.6692298203264,490.0580000000001,147.51458300000002
A-2157,O=C1CCCCCCCCCCCCCCO1,-5.903789722999999,17,45.0,8.187000000000001,-0.0027384577769999,0.00350449833,-0.013083788158,0,4,212.1598483,0,2,10,11.0,0.0,197.5723537040626,373.15,144.467959
A-1000,O=C1CCCCCCCCCOCCCCCO1,-3.8838495,18,48.0,9.301,-0.0029416550069999,0.007909760428,-0.011494938038,0,5,228.1592533,0,3,12,12.0,0.001,209.85800291940384,380.74300000000005,147.44033000000002
A-1277,O=C1CCCCCCCCCCOCCCCO1,-4.017959200000001,18,48.0,9.709,-0.0031127961199999,0.005919789533,-0.014457903473,0,5,228.1592533,0,3,15,12.0,0.001,206.48656647277696,390.753,149.478358
B-2912,O=C1CCCCCCCCCCCCCCN1,-2.874,17,45.0,11.845999999999998,-0.003085967602,0.00030243677,-0.022844921967,0,2,210.1671466,1,1,13,14.0,0.0,198.57406562526447,376.635,146.342043
A-5179,CC(C)CCCCCC(=O)NCCCCCC(O)=O,-2.770853612,19,51.0,25.051,-0.00930268303,0.011149523422,-0.085396114512,0,7,242.1659565,1,3,11,14.0,0.0,231.08506532936423,500.5630000000001,156.94168100000002
A-5402,OCCN(CCO)C(=O)CCCCCCCCC=C,-2.7615135860000004,19,51.0,3.043,-0.003877700868,0.011154881592,-0.019509469915,0,5,242.1659565,1,3,14,16.0,-0.001,222.9237455798969,481.858,157.59906999999998
A-4790,CCCCCCCCCCCC(=O)N(C)CC(O)=O,-2.734641439,19,51.0,2.927,-0.005458849498,0.010510152576,-0.0270530695489999,0,7,242.1659565,1,3,11,16.0,0.001,230.78810316588184,495.523,156.78984599999998
F-1002,CCCCCCCCNC(=O)OCC1OC(O)C(O)C(O)C1O,-2.35,23,63.0,12.493,-0.004888837533,0.019675707584,-0.033152002034,0,12,306.1635762,1,7,19,22.0,-0.001,193.66032722180543,476.349,176.183937
A-3893,CC1CC(CCC1N)CC2CCC(N)C(C)C2,-1.821038361,17,45.0,2.954,-1.0465362e-05,-0.010562789492,-0.026596324166,0,4,208.1744449,2,0,14,13.0,0.0,198.14847772052616,467.109,149.894181
A-2079,CC(CO)C1CCCCCCCCCCC1,-5.451794109,16,42.0,2.444,-0.0006901364079999,0.001540595479,-0.001579142116,0,2,196.1604434,0,1,13,12.0,0.0,191.67957344879056,361.792,137.26138999999998
A-2030,CCOCOC1CCCCCCCCCCC1,-5.335319968,17,45.0,10.54,-0.000116491573,-0.002415458744,-0.016317297409,0,3,212.1598483,0,2,13,13.0,0.0,203.8712792301234,369.302,146.18079699999998
C-1571,CCCCCCCCCCCCCCC(O)=O,-4.31,17,45.0,23.957,-0.006775817622,0.00553623302,-0.072037952697,0,4,212.1598483,0,2,7,15.0,0.0,204.624392438206,465.956,145.399666
A-2245,CCCCCCCCCCCCCC(=O)OC,-6.649738161,17,45.0,7.199,-0.000970544038,0.000700994204,-0.012502550588,0,4,212.1598483,0,2,6,16.0,0.0,212.75124784249127,491.006,147.200131
A-2586,CCCCCCCCCCCC(=O)OC(C)C,-5.38453799,17,45.0,14.087,-0.002742124781,0.00064020774,-0.0360612184549999,0,5,212.1598483,0,2,7,13.0,0.0,210.3879995901856,461.833,145.43445400000002
A-39,CCCCCCCCCCCCOC(=O)C(C)O,-4.63414462,18,48.0,6.783,-0.001766635732,0.00772784437,-0.007929014523,0,4,228.1592533,0,3,9,15.0,0.0,227.41378380728057,497.549,151.264581
A-557,CCCCCCCCCCCC(=O)OCC(O)CO,-4.660234439,19,51.0,9.272,-0.00479803968,0.010487480281,-0.04296948501,0,6,244.1586582,0,4,11,17.0,0.001,221.67013326499432,486.974,155.255248
A-2714,CCCCC(=O)OCC(CO)(CO)COCC(CO)(CO)CO,-6.8304565,23,63.0,6.809,-0.0033917130089999,0.0233962124319999,-0.018984435175,0,12,308.1562779,0,8,20,17.0,0.0,273.51298717704293,493.022,174.788092
F-715,CCCCCCCCCCN1CCCCC1,-1.53,16,42.0,8.968,-1.87307e-06,-0.006129540869,-0.0157589162229999,0,1,194.1677417,1,0,7,11.0,0.0,195.47128761041168,423.279,143.111393
B-1423,CCCCCCCCCCCCCCC,-9.4464,15,39.0,0.242,-2.880497e-06,-0.00627857755,-0.019556629531,0,2,180.1610385,0,0,0,2.0,0.0,191.4002052212756,437.814,137.526183
A-5660,CCC(C)CCCC(C)CCCC(C)C,-6.61539022,15,39.0,5.097,-2.9243290000000003e-06,-0.006076898029,-0.016341179123,0,4,180.1610385,0,0,1,12.0,0.0,206.63165500047612,423.751,136.31403
B-1424,CCCCCCCCCCCCCCCO,-6.3476,16,42.0,9.745,-0.001052590546,0.000279309192,-0.014298905765,0,2,196.1604434,0,1,3,12.0,0.0,196.68072147740344,451.174,141.24291599999998
A-3877,CCCCCCCCCCCCCCCO[S]([O-])(=O)=O,-1.042005529,20,54.0,14.544,-0.017303181218,0.011540760201,-0.0728448308139999,0,11,276.22344560000005,0,4,11,15.0,0.0,238.5690749832005,524.7180000000001,180.710216
A-861,CC(O)CSCCCCCCCCC(C)(C)C,-4.730940692,17,45.0,25.198,-0.00052831007,0.000819146083,-0.031434717133,0,3,228.2252308,0,1,10,14.0,0.0,228.1096326282375,469.78,156.714417
B-1368,CCCCCN(CCCCC)CCCCC,-4.0326,16,42.0,3.369,-3.783625e-06,-0.006584949348,-0.031380809124,0,3,194.1677417,1,0,1,14.0,0.0,204.49861009736213,455.14,145.778831
B-2429,FC(F)(F)c1nc2cc(Cl)c(Cl)cc2n1C(=O)Oc3ccccc3,-4.4603,22,66.0,5.766,-0.000257960819,0.004679363419,-0.008557602106,0,19,368.0743394,2,2,7,13.0,0.0,263.634800093435,458.855,195.335942
B-3484,Fc1ccc(Oc2ccnc3cc(Cl)cc(Cl)c23)cc1,-6.4243,18,54.0,14.777,-0.000252864649,0.001749104039,-0.022285915917,0,10,300.0714249,1,1,9,13.0,0.001,232.5465745415348,414.504,176.779458
C-780,C1=CC2=C(C=C1)C3=C4C(=CC=C3)C=CC=C24,-5.93,16,42.0,0.612,-2.58274e-07,-0.004636232246,-0.004711029078,0,0,192.1717744,0,0,9,13.0,0.0,173.8756330169141,323.291,141.91735
A-203,c1cc2ccc3cccc4ccc(c1)c2c34,-6.1787966160000005,16,42.0,0.0,-2.55012e-07,-0.004525922915,-0.004580713674,0,0,192.1717744,0,0,6,10.0,0.0,174.12480084455734,315.599,142.044217
A-5753,[O-][N+](=O)c1ccc(N\N=C2/C(=O)C=Cc3ccccc23)c(Cl)c1,-7.996998283,22,63.0,15.312,-0.005490556539,0.010220702686,-0.026094750791,0,9,317.6430364,3,3,15,17.0,0.0,252.1381597850157,448.617,192.883909
C-2578,N[S](=O)(=O)C1=CC=C(NC2=NC(=NC=C2)N[S](=O)(=O)C3=C(F)C(=C(F)C(=C3F)F)F)C=C1,-1.57,32,90.0,6.482,-0.014313612088,0.0214386208859999,-0.046160494349,0,31,485.3245007,5,4,17,14.0,0.0,346.15489956998084,564.2719999999999,253.446013
A-6005,O=C1\C(Nc2ccccc12)=C/3Nc4ccccc4C3=O,-6.719775299999999,20,54.0,3.4560000000000004,-0.00181749133,0.0013349821,-0.015613260381,0,6,252.18399069999995,2,2,15,15.0,0.0,209.62571113293137,387.721,164.775285
F-1103,BrC1=CC=CC(NC2=NC=NC3=CC4=C(C=CN4)C=C32)=C1,-2.82,21,57.0,6.45,-7.4540625e-05,-0.008451855724,-0.013057673965,0,7,328.102115,4,0,13,12.0,-0.001,242.1747449043872,436.77,190.297862
A-6058,CNC(=O)/C(C#N)=C/1NC(c2ccccc12)=C3C(=O)NC(=O)NC3=O,-7.528009902999999,25,69.0,17.75,-0.005155964724,0.008032752426,-0.0646599815419999,0,11,326.20291010000005,5,4,19,18.0,0.0,262.53257311398784,449.882,194.328637
B-773,OC(=O)c1cc(nc2ccccc12)c3ccccc3,-3.1926,19,51.0,8.812000000000001,-0.004317631537,0.005269636493,-0.025837424124,0,3,238.1772874,1,2,13,15.0,0.0,207.0218595361397,392.5630000000001,157.69573799999998
B-873,N1c2ccccc2Sc3c1ccc4ccccc34,-6.5727,18,48.0,2.63,-2.0975166e-05,-0.003908957372,-0.005798767682,0,3,238.243265,1,0,8,12.0,-0.001,204.9201930914351,363.486,168.95828899999998
B-872,N1c2ccccc2Sc3ccc4ccccc4c13,-5.8957,18,48.0,1.046,-1.7350828e-05,-0.003195766346,-0.004903102356,0,3,238.243265,1,0,8,12.0,0.0,204.9266361969172,367.224,168.966039
F-1113,CN1N=CC2=C1C=C1N=CN=C(NC3=CC(Br)=CC=C3)C1=C2,-3.48,21,60.0,4.311,-7.421570800000001e-05,-0.009947222478,-0.01696789098,0,8,342.10881820000003,5,0,14,13.0,0.0,254.405047727567,469.897,197.458777
A-5623,CC(=O)C(N=Nc1ccc(Cl)cc1[N+]([O-])=O)C(=O)Nc2ccccc2Cl,-7.72175787,25,72.0,5.997000000000001,-0.0038273594449999,0.010606454412,-0.016514897339,0,13,383.1020821,4,4,22,20.0,-0.001,307.87295923413103,509.311,220.511947
D-2093,CCN(Cc1c(F)cccc1Cl)c2c(cc(cc2[N+]([O-])=O)C(F)(F)F)[N+]([O-])=O,-6.625,27,78.0,4.989,-0.00612098001,0.021654682691,-0.032242867151,0,24,409.6360539,3,4,17,16.0,-0.001,295.53819562669224,510.145,211.269245
A-5207,CC1=NN(C(=O)C1N\N=C\2C=C(C=C(Cl)C2=O)[N+]([O-])=O)c3ccc(cc3)[S]([O-])(=O)=O,-0.838577173,29,84.0,11.13,-0.02067274834,0.027634183002,-0.082604541728,0,19,441.7188499,5,7,25,21.0,0.0,322.223410093276,590.786,250.783431
B-3435,CC(Oc1ccc(Oc2oc3cc(Cl)ccc3n2)cc1)C(O)=O,-3.092,22,63.0,5.755,-0.001223974972,0.009197909398,-0.000832256716,0,10,321.6284398,1,5,16,17.0,-0.001,259.240163038314,483.484,187.615492
A-4649,Cc1cc(ccc1N=C=O)c2ccc(N=C=O)c(C)c2,-2.308127519,20,54.0,0.33,-0.0019215753649999,0.006300843802,-0.0033503485969999,0,4,252.18399069999995,2,2,20,18.0,0.001,227.0733878433406,436.09,165.204107
A-1982,CC(c1ccc(OC#N)cc1)c2ccc(OC#N)cc2,-5.217950889,20,54.0,5.377999999999999,-0.000148176091,-0.005228107565,-0.015543277569,0,7,252.18399069999995,2,2,9,12.0,0.0,229.97283440081088,422.342,165.913277
C-850,O=C1NC(=O)C(C(=O)N1)(C2=CC=CC=C2)C3=CC=CC=C3,-4.2,21,57.0,11.263,-0.0041193714159999,0.008365457901,-0.020548036648,0,4,268.1833956,2,3,18,16.0,0.0,226.7009124403262,384.796,167.554868
A-2912,Oc1ccc2ccccc2c1N=Nc3ccc(cc3)[S]([O-])(=O)=O,-1.1158578959999998,23,63.0,30.219,-0.016442631564,0.01356650655,-0.091640405861,0,10,316.2475879,2,4,17,18.0,0.0,250.0218640947633,465.245,199.888787
A-3949,Oc1ccc(cc1NNC2=CC=C3C(=O)C=CC=C3C2=O)[S]([O-])(=O)=O,-0.901196004,25,69.0,6.699,-0.018644282909,0.022038027,-0.085916576009,0,13,348.2463977,2,6,14,15.0,0.0,243.26677409748288,513.552,210.015748
A-669,[O-]c1ccc2cc(ccc2c1N=Nc3ccc(cc3)[S]([O-])(=O)=O)[S]([O-])(=O)=O,-2.936886553,27,75.0,23.873,-0.030394718152,0.029263572124,-0.464340283185,0,21,396.3105901,2,7,11,15.0,-0.001,294.37326669090425,486.552,238.9357