Name,SMILES,Solubility,AtomNum,DegFreedom,Dipole,Ghb,Gsasa,Gsolv,HNum,LP,MolWt,NNum,ONum,PiCenters,PiDeloc,Quadrupole,Volume,SASA,Polarizabilty
D-1085,CCN(CCO)c1ccc(cc1)N=Nc2ccc(cc2)[N+]([O-])=O,-6.292999999999998,23,63.0,9.226,-0.006465260437,0.010350825338,-0.039810670007,0,7,296.196802,4,3,20,18.0,-0.001,253.7374535406174,496.291,186.774257
B-3277,COC(=O)c1ccccc1C[S](=O)(=O)NC(=O)Nc2nc(OC)cc(OC)n2,-3.534,28,78.0,12.534,-0.0078592064,0.01051560373,-0.054163543024,0,15,392.2592091,4,7,24,21.0,-0.001,318.0921088272358,503.566,228.231558
B-2302,O=[P](Oc1ccccc1)(Oc2ccccc2)N3CCOCC3,-2.1425,22,60.0,3.028,-0.002803888577,0.003319812333,-0.005120053919,0,6,301.14985930000006,1,4,17,18.0,0.0,248.2179933685267,437.116,191.00508
A-5012,COCc1ccc(cc1)c2ccc(COC)cc2,-4.002368633,18,48.0,0.015,-8.137781e-05,-0.0052559521569999,-0.011093933391,0,2,224.1705842,0,2,16,13.0,-0.001,212.20072139827644,426.897,146.223572
F-1053,CCOC(=O)C(C)C1=CC2=CC=C(OC)C=C2C=C1,-5.24,19,51.0,37.914,-0.003607832485,0.001542255992,-0.091587443055,0,5,240.1699892,0,3,15,15.0,0.0,229.5927279746997,443.407,160.652251
F-1056,COC1=CC=C2C=C(C(C)C(=O)OCCO)C=CC2=C1,-3.33,20,54.0,38.557,-0.005695412285,0.00755780713,-0.089157497303,0,5,256.16939410000003,0,4,15,19.0,0.0,235.45026856079411,452.26,164.04593400000002
B-915,O[C@@H]1C[C@](O)(C[C@@H](OC(=O)\C=C\c2ccc(O)c(O)c2)[C@@H]1O)C(O)=O,-0.9473,25,69.0,34.732,-0.007896740502,0.031920811022,-0.074801312381,0,13,336.1664187,0,9,27,19.0,0.0,247.9494545784765,509.36300000000006,186.182392
I-19,C([C@H](c1ccccn1)c1ccc(cc1)Cl)CN(C)C,-2.67,18,51.0,7.995,-1.701721e-06,-0.004898553301,-0.012972102916,0,5,255.6381184,2,0,9,10.0,-0.001,233.00728365802783,426.603,170.63028799999998
F-1189,COC1=CC(OC)=C(Cl)C2=C1C(=O)C1(O2)C(C)CC(O)CC1O,-2.34,23,63.0,15.717,-0.005189981234,0.012069460092,-0.056891035305,0,15,323.6211415,0,6,15,14.0,-0.001,252.8627964402176,462.27,186.869529
C-2356,CNN1C=C(C(O)=O)C(=O)C2=C1C=C(N3CCN(C)CC3)C(=C2)F,-3.73,24,66.0,21.511,-0.006786625002,0.010418180151,-0.070247730863,0,8,315.1952052,4,3,21,17.0,0.0,260.8647412475061,459.809,188.091674
A-2167,CCN(CC)c1ccc(cc1)N=Nc2ccccc2,-5.982115267999999,19,51.0,7.277,-3.411516e-06,-0.007187511564,-0.025998835995,0,2,234.191884,3,0,19,16.0,0.0,223.37778527856324,438.875,166.229122
C-2294,CC1(C)SC2C(NC(=O)C(N)C3=CC=CC=C3)C(=O)N2C1C(O)=O,-1.99,24,66.0,9.707,-0.003015765318,0.0095091364709999,-0.0241760594199999,0,10,330.25429110000005,3,4,20,18.0,0.0,251.53470483050071,450.347,201.882468
A-1877,CC1(C)S[C@@H]2[C@H](NC(=O)[C@H](N)c3ccccc3)C(=O)N2[C@H]1C(O)=O,-1.539016442,24,66.0,13.237,-0.002512338456,0.010090204479,-0.015781946526,0,9,330.25429110000005,3,4,25,17.0,0.0,292.276252982058,482.085,203.264052
C-2137,CC1=C(N2C(SC1)C(NC(=O)C(N)C3=CCC=CC3)C2=O)C(O)=O,-1.22,24,66.0,10.128,-0.0044843682919999,0.013302771908,-0.035956024552,0,9,330.25429110000005,3,4,24,18.0,-0.001,269.27663491771665,473.022,199.589589
C-2344,CC1(C)SC2C(NC(=O)C(N)C3=CC=C(O)C=C3)C(=O)N2C1C(O)=O,-2.17,25,69.0,19.99,-0.009864827349,0.020737651922,-0.080601291913,0,13,346.253696,3,5,24,20.0,0.0,286.0281482038342,510.858,203.361097
C-2401,COC1=C(N2C(SC1)C(NC(=O)C(N)C3=CCC=CC3)C2=O)C(O)=O,-1.89,25,69.0,4.609,-0.003356174751,0.00726780379,-0.028936455241,0,11,346.253696,3,5,22,17.0,0.0,271.1313654727378,476.80300000000005,206.978553
A-5478,CCOc1ccc(Nc2ccc(cc2[N+]([O-])=O)[S](=O)(=O)N(C)C)cc1,-4.261751621,24,69.0,19.626,-0.008615040587,0.0104584208459999,-0.06133944227,0,12,346.253696,3,4,21,19.0,0.0,293.5167211325986,492.212,206.946141
G-1046,CCN2c1nc(N(C)(CCO))ccc1NC(=O)c3cccnc23 ,-3.36,23,63.0,9.561,-0.0027656630359999,0.003787959955,-0.0278927355349999,0,8,294.2041003,5,2,17,19.0,0.0,251.7327651926022,435.491,186.77201
C-1389,CCOC(=O)CN(C)C(=O)COC(=O)C1=CC=CC=C1OC(C)=O,-2.55,24,66.0,21.587,-0.004826910812,0.010469396348,-0.0481876842569999,0,15,318.1743121,1,7,15,17.0,0.0,269.47736618053426,494.5580000000001,184.666923
A-2210,CC(C)c1ccc2ccccc2c1C(C)C,-6.230113619,16,42.0,6.513999999999999,-1.140357e-06,-0.005091702032,-0.0107226875139999,0,2,192.1717744,0,0,8,11.0,0.0,196.3611648661065,355.051,142.231213
B-3531,CCN(C1CCCCC1)C(=O)N2N=NN(C2=O)c3ccccc3Cl,-5.1821,24,66.0,15.782,-0.002872165568,0.001746627617,-0.047211833841,0,9,329.6570379,5,2,16,17.0,0.0,269.60499961767067,455.9330000000001,202.832145
B-804,C(CNCc1ccccc1)NCc2ccccc2,-1.7865,18,48.0,0.119,-2.1092240000000003e-06,-0.006857810085,-0.03639750121,0,0,220.1851808,2,0,14,14.0,0.0,209.6055031548318,428.964,156.636956
F-537,CC(=O)CC(C)=NC1=CC=C(N=C(C)CC(C)=O)C=C1,-1.89,20,54.0,1.983,-0.002361394774,0.005976645068,-0.007431352626,0,3,252.18399069999995,2,2,13,16.0,0.0,258.2512703169931,484.496,163.409412
B-3163,COC(=O)c1cc(C)ccc1C2=NC(C)(C(C)C)C(=O)N2,-2.3262,21,57.0,2.549,-0.001865543389,0.003876795531,-0.014115264632,0,7,268.1833956,2,3,13,16.0,0.0,267.8846678968422,470.548,172.990037
F-853,CC(C)CNCC1=CC=C(C(=O)C2=CSC(S(N)(=O)=O)=C2)C=C1,-2.05,21,63.0,16.053,-0.0113967119809999,0.01033555462,-0.070845309795,0,9,332.3129704,1,3,16,19.0,0.001,286.6646218263021,502.923,213.182614
F-903,CC(C)CNCC1=CC=CC(C(=O)C2=CSC(S(N)(=O)=O)=C2)=C1,-2.05,23,63.0,13.284,-0.0113795294999999,0.010646004788,-0.059073066671,0,10,332.3129704,2,3,14,17.0,0.0,285.90733811065206,499.137,211.347022
F-904,CCCCNCC1=CC=C(C(=O)C2=CSC(S(N)(=O)=O)=C2)C=C1,-2.21,22,63.0,12.555,-0.007558949571,0.008683732454,-0.049609920323,0,9,332.3129704,2,3,14,17.0,0.0,275.05768847671294,504.635,209.96291
G-401,CCCC1C(=O)N3N(C1=O)c2cc(C)ccc2N=C3N(C)C ,-3.5380000000000003,22,60.0,2.313,-0.002548255294,0.000913023957,-0.022280159715,0,9,280.19739710000005,4,2,11,15.0,0.0,244.79584926007487,435.926,180.116183
C-2399,CCCC1=C(O)N2N(C1=O)C3=CC(=CC=C3N=C2N(C)C)C,-3.63,22,60.0,2.262,-0.002557403898,0.000903660409,-0.0222703980709999,0,9,280.19739710000005,4,2,11,15.0,0.0,244.78653007279289,436.406,180.11608700000002
B-2855,CC(C)(O)CC(C)(O)c1cccc2ccccc12,-3.2419,18,48.0,2.988,-0.001399483714,0.005420663149,-0.0050248608649999,0,3,224.1705842,0,2,11,15.0,0.0,227.75648658167347,345.207,148.930381
B-2001,CC1CCCCN1CCCOC(=O)c2ccc(Cl)c(Cl)c2,-4.2178,19,57.0,9.339,-0.001803409261,0.002589939552,-0.017842696977,0,10,309.08316260000004,1,2,9,14.0,-0.001,254.25122565304832,489.201,189.082284
E-729,n(c(N(Cc(cccc1)c1)CCN(C)C)ccc2)c2,-2.64,19,51.0,6.667000000000001,-1.486608e-06,-0.006193212054,-0.01190392781,0,5,234.191884,3,0,7,13.0,0.0,227.70464257645955,390.397,163.627038
C-2187,CCCN1CC(C)N2C(=O)C3=C(C=CC=C3)N=C2C1C,-2.24,20,54.0,5.974,-0.001770918663,-0.001779238406,-0.019022371665,0,6,250.1912889,3,1,12,14.0,0.0,226.2579686413021,400.221,166.85907
B-1072,CC(C)NCC(O)COc1cccc2ccccc12,-3.6202,19,51.0,9.807,-0.0030214266769999,0.001008109439,-0.025076426009,0,6,238.1772874,1,2,11,13.0,0.0,220.3457686418396,402.593,157.566684
C-1278,CC1CCCC(C)N1C(=O)COC(=O)C2=CC=CC=C2,-3.26,20,54.0,5.169,-0.0033601774939999,0.005031920041,-0.016539128625,0,7,254.1766924,1,3,15,11.0,0.0,228.70962211166264,422.706,162.647868
C-1953,CN(C1CCCCC1)C(=O)COC(=O)C2=CC=CC=C2,-3.29,20,54.0,2.837,-0.002501399343,0.003263035389,-0.015642903284,0,6,254.1766924,1,3,13,17.0,0.0,227.62743856936248,419.8130000000001,162.00282099999998
D-1421,CN1C2CCC1CC(C2)OC(=O)C(O)c3ccccc3,-1.44,20,54.0,7.817,-0.002435811661,0.003352510144,-0.016636355057,0,6,254.1766924,1,3,20,14.0,0.0,233.9837773825125,409.33,162.397728
C-1956,CCC1CCCCN1C(=O)COC(=O)C2=CC=CC=C2,-2.72,20,54.0,4.258,-0.00239599902,0.0039315400919999,-0.016157902871,0,5,254.1766924,1,3,15,15.0,0.0,227.29709102234315,418.787,163.110656
A-1650,OC(=O)[C@@H](NC(=O)OCc1ccccc1)C2CCCCC2,-3.285433603,21,57.0,5.26,-0.002322291349,0.008572208941,-0.0075795023679999,0,5,270.17609730000004,1,4,22,15.0,-0.001,236.5342456648144,435.663,166.326344
C-1348,CCN(CC)C(=O)C(C)OC(=O)C1=CC=CC=C1OC(C)=O,-1.6,22,60.0,13.882,-0.0026935169449999,0.0062697666189999,-0.0247241902089999,0,12,286.1755022,1,5,18,16.0,0.0,258.3455031933537,469.997,176.68660400000002
B-3533,CC(C)OC(=O)C1(CCCCC1)[S](=O)(=O)c2ccc(cc2)[N+]([O-])=O,-4.8796,24,66.0,0.967,-0.009784946523,0.016818018925,-0.049055156613,0,13,334.2396945,1,6,19,19.0,0.0,270.1884535209433,453.617,198.015086
C-2405,CC(C)OC(=O)CC(C(=O)OC(C)C)[S](=O)(=O)C1=CC=C(C=C1)[N+]([O-])=O,-4.29,26,72.0,3.102,-0.011291440556,0.022839665188,-0.0448607917569999,0,16,366.2385044,1,8,18,19.0,0.0,307.622317300259,535.565,211.185443
B-1755,CCCCCCCCOC(=O)COc1ccc(Cl)cc1Cl,-7.0217,20,57.0,14.683,-0.002225126742,0.005886981872,-0.0211242087479999,0,11,311.07586430000003,0,3,12,15.0,0.0,265.06524136818365,507.854,187.616697
B-2658,CCCCC(CC)COC(=O)COc1ccc(Cl)cc1Cl,-7.0122,20,57.0,13.271,-0.000348728945,0.004344974505,-0.012080371462,0,10,311.07586430000003,0,3,14,14.0,0.0,269.5715242338593,473.137,186.658561
B-3418,CC(C)(C)C(O)(CCc1ccc(Cl)cc1)Cn2cncn2,-3.932,20,57.0,8.122,-0.001560025497,-0.001200745709,-0.020150170557,0,8,285.6442265,3,1,12,16.0,0.0,267.41655941756244,445.136,181.930003
B-2853,CCOC(=O)CN(C(=O)CCl)c1c(CC)cccc1CC,-3.4727,20,57.0,15.595,-0.002351118978,0.00515029154,-0.037826295187,0,10,289.62962989999994,1,3,14,15.0,0.0,262.48657394189485,414.254,177.879884
B-2243,CNC(=O)Oc1cc(C)c(N(CC=C)CC=C)c(C)c1,-3.5932,20,54.0,12.465,-0.0011812332069999,-4.6325633e-05,-0.0257007777259999,0,7,252.18399069999995,2,2,16,11.0,0.001,244.0733655184592,450.51,167.637494
F-769,COC1=CC=C(CN(CCN(C)C)C2=NC=CC=N2)C=C1,-2.99,21,57.0,12.705,-6.2422312e-05,-0.007838601201,-0.03376397595,0,6,264.1979922,4,1,19,14.0,0.0,246.07543852517688,476.693,175.88308500000002
F-578,CCCCNC(=O)NC1=C(C)N(C)N(C2=CC=CC=C2)C1=O,-1.63,22,60.0,8.152999999999999,-0.002171053133,0.003398769086,-0.025754552548,0,5,280.19739710000005,4,2,18,18.0,0.0,255.95898957381127,465.815,181.378133
C-2302,CCCN1C(=O)N(CCC)C2=C([NH]C(=N2)C3CCC(=O)C3)C1=O,-3.16,23,63.0,0.728,-0.00353386811,0.0074498245979999,-0.020771691778,0,10,296.196802,4,3,17,13.0,0.0,248.11683042203603,481.093,182.355772
B-3487,CCN(CC)C(=O)n1cnc(n1)[S](=O)(=O)c2c(C)cc(C)cc2C,-5.1467,24,66.0,11.518,-0.004512178557,0.0043204845409999,-0.048083860998,0,10,328.2615894,4,3,18,17.0,0.0,283.16318664156194,446.432,206.809132
B-2972,COCCOc1c(OC)cc(Cc2cnc(N)nc2N)cc1OC,-2.101,24,66.0,8.63,-0.000618723542,-0.008168613763,-0.0353231552,0,7,312.1962069,4,4,25,18.0,0.0,171.04423000166662,522.275,189.200015
A-4623,CC(=O)OCC1OC(OC(C)=O)C(OC(C)=O)C(OC(C)=O)C1OC(C)=O,-2.415352911,27,75.0,9.137,-0.001965852553,0.010359942131,-0.030601973432,0,17,368.1652285,0,11,22,20.0,0.0,295.1419524192212,492.084,195.656692
B-4410,CC(=O)OC[C@@H](OC(C)=O)[C@@H](OC(C)=O)[C@H](OC(C)=O)[C@@H](OC(C)=O)C=O,-2.4154,27,75.0,6.351,-0.004075148307,0.017506946997,-0.022700333552,0,19,368.1652285,0,11,19,19.0,0.001,303.5411970751158,461.581,196.410766
A-5982,CCCCCCCC(=O)CC(=O)c1ccccc1,-5.883696695,18,48.0,4.402,-0.003259807087,0.00472373199,-0.018164027139,0,5,224.1705842,0,2,7,13.0,0.0,220.7819305552324,421.117,153.237588
A-2137,CC1CC(CC(C)(C)C1)OC(=O)c2ccccc2O,-5.816819422000001,19,51.0,1.077,-0.001726058969,0.001522553327,-0.022054357433,0,5,240.1699892,0,3,9,11.0,0.0,227.0405266786136,392.945,157.58277900000002
A-1839,CC(C)COC(=O)c1ccccc1C(=O)OCC(C)C,-4.383890265,20,54.0,9.002,-0.002378547436,0.0030784319309999,-0.017556849781,0,6,256.16939410000003,0,4,19,16.0,0.0,248.4165852152373,460.416,164.75077199999998
A-204,CCCCOC(=O)c1ccc(cc1)C(=O)OCCCC,-6.40319542,20,54.0,0.0559999999999999,-0.003633497608,0.0060750302339999,-0.015514654279,0,6,256.16939410000003,0,4,22,17.0,0.0,230.8904041728452,479.5580000000001,162.986433
A-176,CCCCOC(=O)c1ccccc1C(=O)OCCCC,-4.387683254,20,54.0,8.468,-0.002377836349,0.003065505617,-0.017486925963,0,7,256.16939410000003,0,4,19,16.0,-0.001,230.23241654665185,460.41,164.750497
H-548,CCCCC1=C(CCCC)C(C(O)=O)=C(C(O)=O)C=C1,-4.4,20,54.0,6.746,-0.003528783588,0.008561228994,-0.0213075511279999,0,9,256.16939410000003,0,4,14,13.0,0.0,232.9730963553926,432.875,164.152205
C-670,CC(C)OC(=O)C1(CCCC1)[S](=O)(=O)C2=CC=C(C)C=C2,-3.91,21,57.0,5.075,-0.006862944389,0.007413216959,-0.030650328593,0,10,288.2341815,0,4,12,13.0,0.0,250.7017812879736,418.602,177.331501
A-1255,COC1OC(CO[S](=O)(=O)c2ccc(C)cc2)C3OC(C)(C)OC13,-4.156442533,24,66.0,6.41,-0.008369286524,0.009607040446,-0.05702224535,0,14,336.2323962,0,7,14,12.0,0.001,276.6074484953803,455.121,198.797019
C-2039,COC1=C(OC2OC(CO)C(O)C(O)C2O)C=CC(=C1)\C=C\CO,-1.87,24,66.0,10.624,-0.004928696808,0.022845490112,-0.027301422982,0,12,320.1670138,0,8,18,17.0,-0.001,253.95833656285248,478.681,180.598567
C-1144,CC(C)(C)C(=O)OCN1C=C(F)C(=O)N(COC(=O)C(C)(C)C)C1=O,-3.9,25,69.0,6.417000000000001,-0.003148379381,0.013829666228,-0.016929971496,0,18,335.1800135,2,6,20,15.0,0.0,271.9928965298868,490.173,182.490956
B-3152,CC(C)N1C(=O)N(CSC1=NC(C)(C)C)c2ccccc2,-5.5307,21,57.0,9.825,-0.0015890415249999,-0.000560254424,-0.0220420462479999,0,7,282.2560764,3,1,12,13.0,0.0,265.3706516442033,431.287,184.753476
C-2351,CCN(CC)C(=O)CCC(=O)OC[N]1C=NC2=C1C(=O)N(C)C(=O)N2C,-1.14,26,72.0,6.367000000000001,-0.0034054870649999,0.009707574148,-0.021936380019,0,16,342.202315,5,5,23,19.0,0.0,286.88506565293665,517.922,205.985132
C-1952,CCCCCCCC(=O)OC1=CC=C(NC(C)=O)C=C1,-4.44,20,54.0,5.634,-0.000578936292,0.001762835198,-0.0125279076809999,0,6,254.1766924,1,3,12,14.0,0.001,234.10752192553872,460.508,165.412294
C-2235,CCCN1C(=O)N(CCC)C2=C([NH]C(=N2)C3CCCC3)C1=O,-4.96,22,60.0,2.451,-0.002372381337,0.00103178749,-0.0220720090389999,0,8,280.19739710000005,4,2,15,13.0,0.001,241.93782951200603,467.192,177.691173
C-2263,CCCCCCCC(=O)OC[N]1C=NC2=C1C(=O)N(C)C(=O)N2C,-3.45,24,66.0,7.665,-0.003418237981,0.006212779797,-0.024422040491,0,11,312.1962069,4,4,15,18.0,0.0,293.12756544517487,518.711,191.311593
C-1929,CCCCCCCCCC(=O)NNC(=O)C1=CC=NC=C1,-4.17,21,57.0,7.349,-0.004782559,0.002515961225,-0.041012113205,0,5,266.19069390000004,3,2,15,19.0,0.0,243.7432599588876,477.252,173.95830700000002
F-262,CCCCCCCCN(C)N=NC1=CC=C(C(=O)O)C=C1,-3.77,21,57.0,14.656,-0.006833303075,0.002320710154,-0.090794504226,0,6,266.19069390000004,3,2,13,15.0,-0.001,250.129813513736,503.246,174.378806
B-1923,CNC(=O)Oc1cc(cc(c1)C(C)(C)C)C(C)(C)C,-4.2445,19,51.0,6.106,-0.001076349451,-0.0003727431579999,-0.021734297554,0,8,238.1772874,1,2,10,10.0,-0.001,239.16374362830769,429.532,152.382219
B-2821,CCCCCCCCCOC(=O)c1ccc(N)cc1,-6.0,19,51.0,1.401,-0.002731770731,0.000551111646,-0.029024621145,0,6,238.1772874,1,2,9,14.0,-0.001,226.1054174566393,450.826,156.735812
B-2138,CCCCCCCCCCOC(=O)c1cccnc1,-3.1901,19,51.0,8.985,-0.001851868605,-0.001460103824,-0.017721678656,0,5,238.1772874,1,2,8,12.0,0.0,223.04867425355044,472.124,160.209417
B-2817,CCC(C)N(C(C)CC)C(=O)SCc1ccccc1,-5.0484,18,51.0,10.079,-0.000580107129,-0.001882555329,-0.017881382897,0,9,254.2426699,1,1,8,11.0,0.0,243.08934585502712,439.11800000000005,175.76113999999998
B-476,CCCCCCCCCCc1ccccc1,-7.959,16,42.0,6.77,-1.795036e-06,-0.006109380646,-0.013854883158,0,1,192.1717744,0,0,4,15.0,0.0,196.71008503621889,426.016,144.093153
B-3264,CCCCCCCCCCNC(=O)c1cccnc1,-3.0765,19,51.0,2.494,-0.002599336808,-0.002464982608,-0.025325526172,0,4,236.1845857,2,1,6,16.0,0.0,223.9130241276234,475.673,162.08043899999998
F-610,CC(=O)C=C(C)NC1CCCCC1NC(C)=CC(C)=O,-2.11,20,54.0,6.895,-0.003084966748,0.006329627027,-0.01150122902,0,4,252.18399069999995,2,2,19,15.0,0.0,251.7751996798283,454.974,163.299074
C-247,COC(=O)CCCNC(=O)N[C]12C[CH]3[CH2]C([CH2][CH](C3)C1)C2,-2.25,21,57.0,5.19,-0.0033972415049999,0.0039496262319999,-0.0301833390439999,0,9,268.1833956,2,3,16,15.0,0.0,239.1169417697,458.943,155.292811
C-1382,CCCCCCC(=O)N(C)C1=CC=C(C=C1)[S](=O)(=O)N(C)C,-3.68,22,60.0,3.5860000000000003,-0.003414877206,0.002085666477,-0.024066900621,0,8,300.248183,2,3,17,16.0,0.0,280.45548805241333,498.19,195.82535
C-1384,CCCCCCC(=O)N(C)[S](=O)(=O)C1=CC=C(C=C1)N(C)C,-3.68,22,60.0,6.255,-0.007440226805,0.004467386138,-0.046462503902,0,10,300.248183,2,3,14,13.0,0.0,265.77261573272216,502.556,195.492905
A-1420,CC1CC2=C(CC1(C)C(C)=O)C(C)(C)CCC2,-4.941791315,17,45.0,4.834,-0.000414770371,0.00131460846,-0.009813728172,0,3,208.1711793,0,1,7,11.0,0.001,225.40090985979515,376.192,139.542578
A-1135,CCC(C)(C)c1ccc(O)c(c1)C(C)(C)CC,-4.892804854,17,45.0,8.92,-0.001827791043,-0.000306213187,-0.0273071554699999,0,3,208.1711793,0,1,7,11.0,0.0,227.51319643509308,358.276,147.124441
B-2591,CCCCC(O)(CCCC)C(O)c1ccccc1,-3.2225,18,48.0,7.813,-0.001888920325,0.002970190483,-0.017013225903,0,6,224.1705842,0,2,9,14.0,0.001,216.37940761176105,410.388,152.074242
A-2674,CCC(C)(C)c1cc(O)c(cc1O)C(C)(C)CC,-6.495513117000001,18,48.0,4.394,-0.001147375826,0.002718431814,-0.0127935239999999,0,4,224.1705842,0,2,15,15.0,0.0,236.46353287591728,427.42,152.818605
A-183,CC(C)CC(C)CC(C)\C=C(/C)C1CC(=O)OC1=O,-4.425503245,19,51.0,8.123,-0.003191329,0.008178481742,-0.0212630042529999,0,10,240.1699892,0,3,7,14.0,-0.001,236.48387986476948,455.579,157.24707800000002
A-182,CCCCCCCCC\C=C\CC1CC(=O)OC1=O,-4.425503245,19,51.0,8.439,-0.00371528489,0.0080026087699999,-0.026916593331,0,7,240.1699892,0,3,4,15.0,0.0,219.00778064209248,480.744,158.954713
A-1132,C=CC(=O)OCCCCCCCCCCOC(=O)C=C,-4.960875455,20,54.0,5.27,-0.003867147815,0.0073386614049999,-0.02647298844,0,6,256.16939410000003,0,4,16,20.0,0.0,236.10074781857708,520.739,165.439978
A-4437,CC(=C)C(=O)OCCOCCOCCOCCOC(=O)C(C)=C,-1.41863926,23,63.0,9.905,-0.004899272592,0.014062058978,-0.032220208021,0,12,304.1676088,0,7,20,20.0,0.0,268.6543843802295,561.0840000000001,177.816982
A-3240,[O-][S](=O)(=O)C(CC(=O)OC1CCCCC1)C(=O)OC2CCCCC2,-0.714701597,24,66.0,1.42,-0.0129179073579999,0.014289158291,-0.089455391612,0,14,336.2323963,0,7,17,21.0,0.0,264.3338767067295,474.65,199.978453
A-877,CO[C@]1(C)CCC23C[C@@H]1C(C)(C)[C@@H]2CC[C@H]3C,-4.74017718,17,45.0,3.789,-7.743142e-06,-0.004451617184,-0.011271868606,0,5,208.1711793,0,1,10,11.0,-0.001,219.93077942288863,375.796,145.038102
A-1960,CC1(C)CCCC2(C)C1CCC3(C)OCCC23,-5.099487786,17,45.0,13.61,-0.000268689942,0.000895813358,-0.021464242435,0,3,208.1711793,0,1,12,13.0,0.001,203.2351424250204,404.715,150.768152
A-1959,CC1(C)CCC[C@@]2(C)[C@H]1CC[C@@]3(C)OCC[C@H]23,-5.099487786,17,45.0,9.115,-6.5447005e-05,-0.002406149768,-0.011498942818,0,2,208.1711793,0,1,13,13.0,0.0,218.6907910332916,356.941,148.158799
A-5507,CCCCC1CCC(CC1)C2CCC(=O)CC2,-6.373645635,17,45.0,0.826,-0.001823738947,0.000673653947,-0.016695991789,0,3,208.1711793,0,1,14,14.0,0.001,198.48529601648065,401.353,148.678196
A-2097,O=C1CCCCCCCCCC\C=C/CCC1,-5.560732278,17,45.0,11.294,-0.003363521581,0.00100660063,-0.022944946126,0,2,208.1711793,0,1,5,13.0,0.0,200.46183869280284,379.476,148.264677
A-2110,O=C1CCCCCCC\C=C/CCCCCCO1,-5.629397555,18,48.0,12.512,-0.003707148743,0.003189466288,-0.024869647525,0,4,224.1705842,0,2,7,11.0,0.0,209.10769208249687,393.436,153.387402
A-1547,CC(C)COC(=O)C1CCCCC1C(=O)OCC(C)C,-4.19123514,20,54.0,10.353,-0.003380317354,0.006328408919,-0.026517501368,0,9,256.16939410000003,0,4,13,14.0,0.0,250.2065472367792,441.526,164.05441499999998
A-264,CCCC(CCC)(C(O)=O)C(CCC)(\C=C\C)C(O)=O,-3.495359601,20,54.0,0.753,-0.001292739925,0.0063939616579999,-0.012579581088,0,8,256.16939410000003,0,4,16,20.0,0.0,251.60325884006423,462.285,167.14396200000002
C-177,CCCCCOC(=O)CCCNC(=O)NC1CCCCC1,-2.3,21,57.0,6.101,-0.00306765416,0.001860924762,-0.01978802935,0,6,268.1833956,2,3,13,17.0,0.0,241.72843222231816,488.674,172.22216
A-5688,CC1CCCCCCCCCCCCC(=O)C1,-5.74386512,17,45.0,11.134,-0.003135006554,0.000881079987,-0.023414722176,0,3,208.1711793,0,1,9,10.0,0.001,203.49850136048212,375.975,147.870856
A-4946,CC(C)CCC(C)(O)C#CC(C)(O)CCC(C)C,-3.437525292,18,48.0,4.604,-0.000198270943,0.001308934198,-0.0043235649329999,0,6,224.1705842,0,2,12,14.0,0.0,231.69800662346577,464.344,148.911939
A-6079,CCCCCCCCCCCCOC(=O)C(C)=C,-8.405541006,18,48.0,7.502999999999999,-0.002406299056,0.000402635792,-0.026856987543,0,5,224.1705842,0,2,9,16.0,0.0,222.5413008826204,484.802,154.452154
A-1749,CC(C)C(OC(=O)C(C)C)C(C)(C)COC(=O)C(C)C,-4.333139569,20,54.0,2.45,-0.001359772034,0.002144099985,-0.014419005674,0,9,256.16939410000003,0,4,12,14.0,0.0,261.80531003901194,446.257,158.21191000000002