Name,SMILES,Solubility,AtomNum,DegFreedom,Dipole,Ghb,Gsasa,Gsolv,HNum,LP,MolWt,NNum,ONum,PiCenters,PiDeloc,Quadrupole,Volume,SASA,Polarizabilty
B-4440,O=C(OOC(=O)c1ccccc1)c2ccccc2,-4.4252,18,48.0,0.002,-0.003130187133,0.006246621943,-0.012588523138,0,8,232.14792230000003,0,4,12,13.0,0.0,197.773720971466,397.144,142.583565
B-4401,OC(=O)c1ccccc1c2ccccc2C(O)=O,-2.2839,18,48.0,17.704,-0.007298609746,0.014288068595,-0.0648404859799999,0,4,232.14792230000003,0,4,16,16.0,-0.001,195.71848945744912,355.761,140.13065600000002
E-931,Oc1ccc2Oc3cc(OC)cc(O)c3C(=O)c2c1,-2.93,19,51.0,20.035,-0.007398961204,0.013474526358,-0.085273451925,0,8,248.1473272,0,5,13,17.0,0.001,196.88222872349544,381.376,146.330874
B-1105,OC(=O)c1cc(O)c(O)c(OC(=O)c2cc(O)c(O)c(O)c2)c1,-2.8092,23,63.0,16.302,-0.0074079994979999,0.032859147665,-0.045297673074,0,14,312.1449469,0,9,23,18.0,0.0,236.3555192918548,462.096,167.832277
F-882,CC1=CC=CC(N(O)C(=O)C2=C(Cl)C=C(Cl)C=C2)=C1,-4.47,17,51.0,6.7170000000000005,-0.002477961403,0.003650004546,-0.020864136496,0,11,285.0616908,1,2,8,10.0,0.0,230.653288691958,410.443,167.28720800000002
F-883,CC1=C(N(O)C(=O)C2=C(Cl)C=C(Cl)C=C2)C=CC=C1,-4.17,17,51.0,5.081,-0.002379827819,0.004433244908,-0.013012168579,0,10,285.0616908,1,2,11,12.0,0.001,232.5614778720528,408.59,170.14371
A-431,OC(=O)Cc1ccccc1Nc2c(Cl)cccc2Cl,-4.620257788,18,51.0,40.126,-0.009265221062,0.008959255861,-0.119708251798,0,11,285.0616908,1,2,9,13.0,0.0,201.83199719216148,483.663,170.869412
A-4091,[O-]C(=O)Cc1ccccc1Nc2c(Cl)cccc2Cl,-1.174231848,18,51.0,30.728,-0.0100068875569999,0.0088841750749999,-0.1226880650599999,0,10,285.0616908,1,2,11,16.0,0.0,201.97957702779,477.663,174.683228
B-2810,CCO[P](=O)(Oc1ccc(Cl)cc1Cl)Oc2ccc(Cl)cc2Cl,-5.774,20,63.0,6.23,-0.006402157325,0.00785776009,-0.014715086369,0,21,404.93343460000006,0,3,9,10.0,0.0,297.54129101192586,532.462,224.426402
B-218,N[S](=O)(=O)c1cc(ccc1Cl)C2(O)NC(=O)c3ccccc23,-3.4507,21,60.0,20.999,-0.0147731691079999,0.016065272282,-0.1017476933459999,0,14,327.6790537,2,4,12,15.0,0.0,248.9726511709559,449.255,188.461484
C-2305,CC(=O)OCN1C=C(F)C(=O)N(C1=O)C(=O)C2=CC=CC=C2,-3.34,22,60.0,8.224,-0.0039937474859999,0.015272011928,-0.019295760585,0,13,295.1591368,2,5,21,16.0,0.0,223.02554199002552,431.396,165.633136
B-307,N#CC(c1ccccc1)c2ccccc2,-2.9437,15,39.0,4.535,-4.754585e-06,-0.006553525897,-0.010244938306,0,1,182.1570058,1,0,9,9.0,0.0,176.79005602126213,324.449,130.831924
B-1337,Nc1ccc2cc3ccccc3cc2c1,-5.1722,15,39.0,7.806,-7.330419e-06,-0.006887922428,-0.013813496162,0,1,182.1570058,1,0,9,11.0,0.0,181.0726927471944,345.605,132.182325
F-563,NS(=O)(=O)C1=C(C2=NC3=C(C=CC=C3)C(=O)N2)C=CC=C1,-3.08,21,57.0,10.075,-0.010442654401,0.00933778447,-0.045988996511,0,9,290.2334144,3,3,14,14.0,0.0,230.45702194363875,411.32,177.768561
A-1119,NC(=O)c1ccc(NC(=O)c2ccc(cc2)[N+]([O-])=O)cc1,-4.936725416,21,57.0,7.608,-0.0051448036589999,0.01333469966,-0.011711635209,0,7,274.1680319,3,4,17,17.0,0.0,232.0249772928652,434.059,162.609828
F-103,CN1C2=C(C=CC=C2)C(=O)C2=C1C=CC=C2,-4.46,16,42.0,2.035,-0.001719637196,0.000122768568,-0.014827176146,0,3,198.1564107,1,1,10,12.0,0.0,176.5846066342719,326.895,137.373596
F-324,CC1=CC(=O)N(O)C2=C1C1=C(C=CC=C1)C=C2,-4.0,17,45.0,16.403,-0.005413701281,0.006330607955,-0.049279592077,0,5,214.1558157,1,2,8,12.0,0.0,184.3126629390979,327.311,139.18068300000002
D-1793,O=C(NC(=O)c1ccccc1)c2ccccc2,-2.273,17,45.0,7.478,-0.003311099827,0.006491422526,-0.015832660642,0,5,214.1558157,1,2,8,11.0,0.001,193.47580149635127,335.10900000000004,137.70013899999998
B-2095,OC(=O)c1ccccc1C(=O)Nc2ccccc2,-4.0814,18,48.0,7.745,-0.004313553659,0.004833207601,-0.030050183172,0,6,230.1552206,1,3,13,13.0,0.001,198.24381898374816,363.199,145.071047
C-2236,CC1=CC=C(C=C1)C(=O)C2=CC(=C(O)C(=C2)O)[N+]([O-])=O,-4.17,20,54.0,17.632,-0.007748049028,0.019610482182,-0.048338845482,0,10,262.1540304,1,5,17,15.0,0.0,218.8997939683499,388.111,154.914547
F-85,CC1=CC=C(C2=NC3=C(C=CC=C3)S2)C=C1,-4.35,15,42.0,1.433,-1.631163e-06,-0.003375448174,-0.004545721759,0,3,214.2217932,1,0,11,11.0,0.0,194.6585973369999,355.173,151.394773
B-3592,Cc1cccc2c1Cc3ccccc23,-5.2184,14,36.0,2.9530000000000003,-6.42392e-07,-0.004430998339,-0.004943178938,0,1,168.15030259999995,0,0,5,8.0,-0.001,165.85105950021162,308.98,124.77978799999998
B-1088,C=C(c1ccccc1)c2ccccc2,-4.4363,14,36.0,2.8,-5.93117e-07,-0.004423065697,-0.005305514828,0,1,168.15030259999995,0,0,8,11.0,0.0,168.01734498587396,308.427,125.471047
B-1251,c1ccc(cc1)\C=C\c2ccccc2,-5.7905,14,36.0,0.002,-3.27602e-07,-0.004918751655,-0.005370779288,0,0,168.15030259999995,0,0,11,13.0,0.0,165.20518705185685,342.991,123.486027
B-1508,C1Cc2ccccc2c3ccccc13,-4.6347,14,36.0,0.926,-2.46774e-07,-0.004320201103,-0.004261122722,0,0,168.15030259999995,0,0,7,9.0,0.0,157.3988857786637,301.254,124.672494
A-6108,ClCc1ccc(cc1)c2ccc(CCl)cc2,-10.09891356,15,42.0,2.094,-4.00687e-07,-0.0018184331409999,-0.002963153804,0,6,239.0561778,0,0,9,10.0,0.0,208.06536661219064,392.722,155.081447
G-1043,CCN2c1cc(Cl)ccc1NC(=O)c3cccnc23 ,-5.36,19,51.0,5.124,-0.0025208597839999,0.000839985036,-0.020485594524,0,7,261.6227547,3,1,10,14.0,0.0,215.4949673509711,372.722,160.28903799999998
C-1351,CC1=C(NC2=CC=CC=C2C(O)=O)C=CC=C1Cl,-5.06,18,48.0,5.531000000000001,-0.001672409805,0.002974053113,-0.009748954361,0,8,249.6087532,1,2,12,13.0,0.001,217.29213700378816,378.257,155.93999499999998
B-2834,Cc1cc(ccc1N[S](=O)(=O)C(F)(F)F)[S](=O)(=O)c2ccccc2,-3.8009,24,66.0,8.312000000000001,-0.011094153075,0.017547998924,-0.041923506025,0,19,367.2794098,1,4,9,13.0,0.0,267.9083611313376,444.636,199.942497
C-2201,CC1CCC2=CC(=CC3=C2N1C=C(C(O)=O)C3=O)F,-3.74,19,51.0,16.476,-0.006574020783,0.014402520529,-0.057634687598,0,9,249.1536237,1,3,14,14.0,0.001,197.9907666457561,371.088,147.344684
B-1983,Cc1ccnc2c1ccc3c(C)ccnc23,-3.9686,16,42.0,2.5540000000000003,-2.340103e-06,-0.005952161104,-0.008782499386,0,4,196.163709,2,0,4,10.0,0.0,182.0235069915716,329.332,137.058194
F-707,CC1=CC2=C(N)C3=C(C=CC=C3)N=C2C=C1,-2.39,16,42.0,3.777,-5.061168e-06,-0.0064253127339999,-0.010738326271,0,3,196.163709,2,0,5,12.0,-0.001,183.08311108054008,322.409,134.370648
B-2204,Nc1ccc(cc1)C#Cc2ccc(N)cc2,-2.4326,16,42.0,0.001,-1.1531967e-05,-0.009114954526,-0.021706486389,0,2,196.163709,2,0,12,11.0,0.0,187.13395939750708,379.972,137.704947
B-1509,O=C(NNC(=O)c1ccccc1)c2ccccc2,-1.5883,18,48.0,8.988999999999999,-0.004698664152,0.00547081129,-0.0271322433259999,0,4,228.16251890000004,2,2,14,12.0,-0.001,203.1962391005139,341.422,142.81393400000002
F-982,ON=C(C1=CC=CC=C1)C(=NO)C1=CC=CC=C1,-5.9,18,48.0,6.185,-0.002409459356,0.00317357451,-0.011155745035,0,5,228.16251890000004,2,2,10,14.0,0.001,202.2180988718393,341.836,147.936163
A-1704,Cc1ccc2nc(sc2c1[S](O)(=O)=O)c3ccc(N)cc3,-4.332499462,21,57.0,4.53,-0.012386077349,0.005875560694,-0.040676782279,0,12,308.2914986,2,3,12,12.0,0.0,235.04263431453683,453.669,194.60313
C-941,CN1C(=O)CCC(N2C(=O)C3=C(C=CC=C3)C2=O)C1=O,-2.99,20,54.0,6.801,-0.004188573507,0.013404091736,-0.018546304099,0,8,260.1613287,2,4,15,14.0,0.0,210.22181360444137,414.334,158.526125
A-1411,COc1ccc(cc1[N+]([O-])=O)C(=O)Nc2ccccc2,-4.987825808999999,20,54.0,4.99,-0.003952471423,0.005540628885,-0.026626703874,0,7,260.1613287,2,4,16,16.0,0.0,218.3919940858304,404.375,159.053146
A-432,[O-][N+](=O)c1ccc(CCc2ccc(cc2)[N+]([O-])=O)cc1,-4.5898858,20,54.0,0.074,-0.008645091454,0.017044550972,-0.031260440727,0,8,260.1613287,2,4,16,15.0,0.0,214.2716207693991,436.496,158.620253
A-4096,Cc1ccc(cc1[N+]([O-])=O)C(=O)Nc2ccc(cc2)[S]([O-])(=O)=O,-1.232035998,23,63.0,13.486,-0.018426303757,0.022103526143,-0.0721862301299999,0,15,324.224926,2,6,12,15.0,0.0,251.0472357972616,458.583,191.305359
E-934,N(c(c(S1)cc(c2)C)c2)=C1c(ccc(N)c3)c3,-3.68,17,45.0,3.663,-3.4697166000000004e-05,-0.005468334139,-0.012670952115,0,5,228.2284964,2,0,6,9.0,0.0,202.0695104112636,374.934,157.279869
B-1886,Nc1ccc(N)c2C(=O)c3c(N)ccc(N)c3C(=O)c12,-6.9515,20,54.0,0.878,-0.001121856823,-0.00452176218,-0.028720641167,0,8,256.1759253,4,2,16,12.0,0.0,214.58970006391087,372.499,158.880969
B-82,Nc1ccc(cc1)[S](=O)(=O)Nc2cnc3ccccc3n2,-4.6026,21,57.0,1.269,-0.003950749021,-0.00283266474,-0.040408489178,0,10,288.2407127,4,2,12,13.0,0.0,222.2220217680615,441.479,183.029251
B-360,CC(=O)c1ccc(cc1)c2ccccc2,-3.3104,15,39.0,4.989,-0.0016070516779999,0.0016961747349999,-0.009150566041,0,1,184.1497075,0,1,9,13.0,0.0,180.76715940894653,354.293,124.172252
C-1996,CC(=O)OC1=CC=C(C=C1)C2=CC=CC=C2,-4.4,16,42.0,2.672,-0.000563751258,0.000672191627,-0.0061810318949999,0,3,200.1491124,0,2,12,13.0,0.0,183.1475522635824,359.84,133.679974
B-2643,CC1(C)OC(=O)c2cc3ccccc3cc12,-2.9844,16,42.0,10.338,-0.002298399645,0.003565158042,-0.017954313618,0,4,200.1491124,0,2,10,11.0,-0.001,188.8252002218309,348.87300000000005,135.756551
A-1077,OC(c1ccccc1)C(=O)c2ccccc2,-2.849722352,16,42.0,0.001,-0.000338335035,0.000903589552,-0.001118254199,0,2,200.1491124,0,2,8,10.0,0.0,181.6689655160836,326.733,133.51171599999998
B-1889,Oc1ccc(cc1)C(=O)Cc2ccccc2,-1.5008,16,42.0,4.974,-0.004714949034,0.0070997310519999,-0.022275300787,0,4,200.1491124,0,2,10,14.0,0.0,181.50173444184296,369.478,127.69146299999998
A-2401,O=C(OCc1ccccc1)c2ccccc2,-4.177624494,16,42.0,7.603,-0.000800123891,0.001268143402,-0.010715360419,0,3,200.1491124,0,2,14,12.0,0.0,188.7009277197025,365.266,134.290826
C-1990,OC(=O)CC1=CC=C(C=C1)C2=CC=CC=C2,-3.73,16,42.0,0.425,-0.0020714319,0.006106047771,-0.005721779947,0,3,200.1491124,0,2,10,13.0,0.001,180.4801841947753,362.059,133.245632
A-1764,OC(=O)C(c1ccccc1)c2ccccc2,-3.223039886,16,42.0,3.314,-0.0018918816229999,0.005675230652,-0.002447305444,0,3,200.1491124,0,2,11,14.0,0.0,181.2094356357878,330.153,131.71056000000002
A-558,COc1ccc(c(O)c1)C(=O)c2ccccc2,-4.580253828,17,45.0,7.465,-0.003053711095,0.005070699301,-0.033176273422,0,5,216.1485174,0,3,11,13.0,-0.001,192.38919822906288,362.21,137.089282
F-429,CC1=CC2=CC3=C(OC(=O)C=C3C)C(C)=C2O1,-5.28,17,45.0,3.945,-0.002594261406,0.008705378723,-0.01273599188,0,6,216.1485174,0,3,14,13.0,0.0,189.1595513771296,367.205,136.460301
B-3721,OC(=O)C(O)(c1ccccc1)c2ccccc2,-2.2092,17,45.0,4.316,-0.002310316582,0.0077204336329999,-0.005039800678,0,4,216.1485174,0,3,14,14.0,0.0,195.37818602910085,341.616,139.212006
B-1684,OC(=O)CCC(=O)c1ccc2ccccc2c1,-3.8533,17,45.0,32.341,-0.01034998814,0.01287097649,-0.118496364133,0,6,216.1485174,0,3,16,13.0,0.001,192.7879105446992,387.213,138.757385
B-2089,OC(=O)CCC(=O)c1cccc2ccccc12,-3.4833,17,45.0,30.163,-0.009884216355,0.012627735378,-0.107932128326,0,6,216.1485174,0,3,16,14.0,0.0,190.64664528835252,381.809,139.39991899999998
A-1857,Oc1ccc(cc1)C(=O)OCc2ccccc2,-3.3249813230000003,17,45.0,20.116,-0.0042347666799999,0.007081867443,-0.040141074227,0,5,216.1485174,0,3,12,12.0,0.0,191.34257618415955,372.479,134.470649
A-338,Oc1ccccc1C(=O)OCc2ccccc2,-4.413922406,17,45.0,6.324,-0.0027065201819999,0.005948440193,-0.012939051786,0,5,216.1485174,0,3,15,13.0,0.0,194.6101529238097,372.898,139.19560900000002
C-749,CC(C(O)=O)C1=CC=C(C=C1)C(=O)C2=CC=CS2,-2.0,18,48.0,5.3420000000000005,-0.00335298279,0.0127592239409999,-0.012444532913,0,7,248.2133048,0,3,11,13.0,0.0,216.52269240567813,406.218,157.254582
A-2201,COC(=O)c1ccc2cc(ccc2c1)C(=O)OC,-6.211736201,18,48.0,1.054,-0.001245274519,0.007156352887,0.001222020151,0,6,232.14792230000003,0,4,24,14.0,0.0,215.7640821407698,433.059,147.28553
A-5104,COc1ccc(c(O)c1)C(=O)c2ccccc2O,-7.273884108,18,48.0,10.748,-0.0048195441,0.009275083836,-0.043913113683,0,6,232.14792230000003,0,4,15,16.0,-0.001,188.73940302960256,414.659,145.480706
C-2111,OC(=O)C1=CC(=O)C2=C(O1)C=C3CCCCC3=C2,-1.05,18,48.0,6.162000000000001,-0.003090440822,0.009828553214,-0.007903693653,0,5,232.14792230000003,0,4,15,13.0,0.0,200.7808761526342,374.369,144.897679
G-771,COc2c1occc1c(OC)c3c(=O)cc(C)oc23 ,-3.0210000000000004,19,51.0,7.255,-0.0023573742149999,0.003284956605,-0.031321265745,0,7,248.1473272,0,5,14,12.0,0.0,204.14845069140927,377.446,150.293677
A-3855,COc1cc(O)c(cc1[S]([O-])(=O)=O)C(=O)c2ccccc2,-0.022384851,21,57.0,9.523,-0.012821008649,0.017984637661,-0.097045787084,0,14,296.2115195,0,6,11,12.0,0.0,232.36723544055528,382.296,177.417403
B-3512,COc1cc(OC)n2nc(nc2n1)[S](=O)(=O)Nc3c(Cl)ccc(C)c3Cl,-3.3204,25,72.0,8.676,-0.006132401554,0.0027116138929999,-0.03733871938,0,19,405.1521009,5,4,15,13.0,0.0,300.1008665526585,526.815,230.967393
G-1033,CCN2c1nc(Cl)ccc1N(C)C(=O)c3cccnc23 ,-4.114,20,54.0,8.697000000000001,-0.001301863676,-0.001260370935,-0.02699019493,0,9,275.6294579,4,1,14,14.0,-0.001,228.3825353360872,394.52,173.203959
B-3478,COc1cc(OC)nc(NC(=O)N[S](=O)(=O)c2n3ccccc3nc2Cl)n1,-4.7886,26,75.0,11.699000000000002,-0.004098265066,0.001127092583,-0.056462332722,0,17,399.7052714,5,5,21,18.0,0.0,306.70084025878595,480.422,227.832947
B-3365,C[S](=O)(=O)c1ccc(c(Cl)c1)C(=O)C2C(=O)CCCC2=O,-3.2994,20,57.0,8.298,-0.011565822831,0.017656301625,-0.0549530818759999,0,12,315.6650522,0,5,16,15.0,0.0,248.87881947442256,420.921,182.788197
B-3515,CC(C)N(C(=O)COc1sc(nn1)C(F)(F)F)c2ccc(F)cc2,-3.8121,24,66.0,3.712,-0.0005666284509999,0.010174647203,-0.003030764053,0,19,350.2276221,3,2,11,11.0,0.0,265.912193184476,460.7480000000001,185.563496
A-2270,CCn1c2ccccc2c3ccccc13,-6.813503151,15,39.0,4.602,-1.467664e-06,-0.004757478121,-0.009176621094,0,1,182.1570058,1,0,10,15.0,0.0,168.51736597789238,327.48900000000003,132.802892
C-2023,CC#CC1=NC(=NC(=C1)C)NC2=CC=CC=C2,-4.6,17,45.0,1.012,-4.691472999999999e-06,-0.006841277643,-0.012783328305,0,4,210.1704122,3,0,10,11.0,0.0,200.8326272361335,356.32300000000004,145.581627
C-2088,CC1=C(C=CC=C1)C(=O)NNC(=O)C2=CC=NC=C2,-2.73,19,51.0,4.217,-0.002290764089,-8.5511668e-05,-0.01525827178,0,7,242.1692221,3,2,11,12.0,0.0,224.8613167933613,390.364,152.903327
G-1044,O2c1cc(C)ccc1N(C)C(=O)c3cc(N)cnc23 ,-3.043,19,51.0,6.922999999999999,-0.0015602166149999,-0.001767669428,-0.023224997228,0,7,242.1692221,3,2,12,14.0,-0.001,217.1109084370428,375.0630000000001,151.37891399999998
A-1128,NC(=O)c1ccc(NC(=O)c2ccc(N)cc2)cc1,-4.915649994,19,51.0,7.024,-0.000901329418,0.000118438426,-0.009822602293,0,5,242.1692221,3,2,18,15.0,0.0,218.39293945995607,403.077,154.24365500000002
C-2073,O=C(CC1=CC=CC=C1)NNC(=O)C2=CC=NC=C2,-2.47,19,51.0,4.591,-0.000261939994,-0.003430563166,-0.008420471247,0,5,242.1692221,3,2,12,13.0,0.0,213.60979394306452,374.645,154.49991699999998
C-1477,CCCOC(=O)[N]1C2=C(C=CC=C2)N=C1C3=CSC=N3,-3.52,19,54.0,3.913,-0.000894359131,-0.00028563886,-0.011708324228,0,7,274.2340095,3,2,17,14.0,0.0,226.42128920934888,424.768,175.431161
C-1060,CN1C(=C(O)C2=CC=CC=C2[S]1(=O)=O)C(=O)NC3=NC=C(C)S3,-1.92,23,63.0,6.306,-0.007927964152,0.0105063228309999,-0.032871665511,0,13,338.2976067,3,4,15,15.0,0.0,267.10106580613416,476.965,206.897842
F-1079,C=CCN1C=NC2=C1N=C(NC1=CC=CC=C1)NC2=O,-5.09,20,54.0,6.04,-0.001642269537,-0.003574056182,-0.020711273534,0,6,254.1832236,5,1,14,14.0,0.0,225.7751099792032,417.522,165.505497
B-1882,Nc1ccc(CC(=O)c2ccccc2)cc1,-1.805,16,42.0,3.68,-0.002157466924,-0.001420358326,-0.017865452171,0,3,198.1564107,1,1,14,13.0,0.0,184.11737125657555,369.086,135.121359
F-626,NC(=O)CC1=CC=C(C2=CC=CC=C2)C=C1,-3.33,16,42.0,9.257,-0.002569492128,0.00021005492,-0.019217702397,0,3,198.1564107,1,1,11,10.0,0.0,183.66534980594548,363.848,135.05803500000002
C-2029,CC1=CC=CC(=C1)NC2=CC=CC=C2C(O)=O,-5.06,17,45.0,10.566,-0.004725038349,0.002956509219,-0.045632949462,0,4,214.1558156,1,2,15,15.0,0.001,196.54659317299544,354.60400000000004,140.97307800000002
C-2080,COC1=CC=CC(=C1)NC2=CC=CC=C2C(O)=O,-4.8,18,48.0,21.784,-0.006377025048,0.006042043225,-0.080325710788,0,7,230.1552206,1,3,13,13.0,0.0,201.7307628661709,374.777,145.71703200000002
C-1396,CC(=O)OC1=CC=CC=C1C(=O)OCN2C(=O)CCC2=O,-2.77,21,57.0,4.785,-0.002170710131,0.008514580152,-0.013086452543,0,10,278.1534353,1,6,22,15.0,0.001,190.92844575223853,435.157,161.081643
B-3621,Cc1ccc(cc1)c2ccc(C)cc2,-6.0177,14,36.0,0.0069999999999999,-6.9121e-08,-0.004611127007,-0.00452122852,0,0,168.15030259999995,0,0,12,9.0,-0.001,177.92018417154574,321.54,125.1519
A-1100,CC(c1ccccc1)c2ccccc2,-4.692503939,14,36.0,2.557,-6.14463e-07,-0.0043945312689999,-0.005314199074,0,1,168.15030259999995,0,0,8,12.0,0.0,168.01413713398324,306.437,125.272347
A-1101,Cc1ccccc1Cc2ccccc2,-4.692503939,14,36.0,4.885,-9.3644e-07,-0.004811366052,-0.011526910648,0,0,168.15030259999995,0,0,10,10.0,0.0,169.70643179043276,335.50300000000004,123.599771
B-3605,C(Cc1ccccc1)c2ccccc2,-4.6272,14,36.0,0.001,-3.28347e-07,-0.004918777294,-0.005373731506,0,0,168.15030259999995,0,0,11,13.0,0.001,165.20919454378642,342.99300000000005,123.484648
B-2802,Clc1ccc(C(Cn2ccnc2)OCC=C)c(Cl)c1,-3.2178,18,51.0,1.871,-0.00011330766,-0.001045762789,-0.00857592133,0,9,283.0689891,2,1,10,12.0,0.0,238.3263428333184,434.168,174.109573
B-3156,Clc1cccc(c1)N(C2CCOC2=O)C(=O)C3CC3,-2.6878,19,51.0,3.907,-0.001625036352,0.006816647871,-0.0138247711599999,0,10,265.6081581,1,3,9,13.0,0.0,212.1405200421825,392.46,159.596282
A-1292,CNC(=O)N(c1ccccc1)c2ccccc2,-2.983946158,17,45.0,4.281000000000001,-0.001569596791,-0.000507864299,-0.010554597479,0,3,212.1631139,2,1,11,14.0,0.0,195.4357805104681,344.391,143.999191
A-1006,COc1ccc(cc1N)C(=O)Nc2ccccc2,-3.86580004,18,48.0,3.5860000000000003,-0.0002173728849999,-0.0056943341059999,-0.01354171833,0,4,228.16251890000004,2,2,16,16.0,0.0,205.8389731627589,416.833,148.583471
B-4326,CC(=O)Nc1ccc(cc1)[S](=O)(=O)c2ccc(N)cc2,-3.6116,20,54.0,4.4030000000000005,-0.006810554105,0.004001606278,-0.031043107088,0,10,276.22671119999995,2,3,14,16.0,0.0,218.191350171624,459.197,173.35218799999998
C-2317,CCOC(=O)C1=CN=C(N[S](=O)(=O)C2=CC=CC=C2)C=C1,-4.24,21,57.0,12.632,-0.008824101101,0.008550693705,-0.036672104925,0,12,292.2261161,2,4,17,14.0,0.001,236.42035239467185,460.499,176.574409
A-3793,Cc1ccc(cc1N)C(=O)Nc2ccc(cc2)[S]([O-])(=O)=O,-0.949277587,21,57.0,12.902,-0.014156981218,0.00950020727,-0.076438243283,0,13,292.2261161,2,4,8,12.0,0.0,236.6639752826769,431.45,180.670737
C-955,CCOC1=CC=C(N[S](=O)(=O)C2=CC=C(C=C2)[N+]([O-])=O)C=C1,-4.72,22,60.0,6.723,-0.007966313164,0.014082112253,-0.044371433946,0,12,308.225521,2,5,14,16.0,0.0,245.63080666264585,456.106,185.250087
B-3340,OC(=O)CNC(=O)CN[S](=O)(=O)c1ccc2ccccc2c1,-2.6954,22,60.0,15.53,-0.009131822976,0.013355544824,-0.04810551726,0,9,308.225521,2,5,24,21.0,0.0,251.5192331063056,448.317,184.492583
A-1027,Nc1ccc(\C=C\c2ccc(N)cc2[S](O)(=O)=O)c(c1)[S](O)(=O)=O,-4.06353038,24,66.0,0.072,-0.023025077474,0.016395701053,-0.070211703837,0,16,356.2897134,2,6,22,21.0,0.001,283.68905737768563,513.641,205.81007
G-1024,CCN2c1ncccc1N(C)C(=O)c3cccnc23 ,-2.62,19,51.0,6.83,-0.000149884273,-0.00212314532,-0.013932189844,0,5,240.1765204,4,1,15,12.0,0.001,216.57335467201105,385.465,158.391451
C-2329,CN1C(=O)N(C)C2=C([N](C)C(=N2)C3=CC=CC=C3)C1=O,-3.31,20,54.0,8.921,-0.002878785089,0.004826313448,-0.0126939770369999,0,8,256.1759253,4,2,10,15.0,0.001,222.983259766872,375.943,157.99684299999998
G-1036,CCN2c1ncccc1N(C)C(=S)c3cccnc23 ,-4.634,18,51.0,1.703,-0.0003623316689999,-0.0031201035979999,-0.016046316538,0,5,256.2419028,4,0,12,15.0,0.0,223.20005206746072,390.261,169.622329
C-2544,CC1=NN=C(SCC2=C(N3C(SC2)C(NC(=O)C[N]4C=NN=N4)C3=O)C(O)=O)S1,-2.62,28,81.0,20.677,-0.0043892095419999,0.008323650162,-0.0525304275179999,0,17,440.3959102,8,4,19,17.0,0.0,334.80021196344,550.5269999999999,257.35134700000003
B-4222,CCO[P](=S)(Oc1ccc(cc1)[N+]([O-])=O)c2ccccc2,-5.0169,21,57.0,10.324000000000002,-0.005123109206,0.010031794576,-0.019047752448,0,8,309.1931749,1,4,15,19.0,0.0,251.0239681703329,452.314,194.827564
C-1930,CC1=CC=C(OC2=CC=C(C)C=C2)C=C1,-4.85,15,39.0,2.906,-0.0001027555789999,-0.001904308856,-0.004443171712,0,3,184.1497075,0,1,5,8.0,0.0,180.74270011559685,318.533,128.504665
E-392,Cc1cccc(c1)Oc2cccc(c2)C,-4.85,15,39.0,1.693,-0.000144068978,-0.0017290419199999,-0.005643001528,0,4,184.1497075,0,1,5,8.0,0.001,182.412902276128,320.587,125.981076
A-1407,Cc1ccccc1Oc2ccccc2C,-4.843927713999999,15,39.0,0.148,-0.000324307856,-0.001780588247,-0.004035674131,0,2,184.1497075,0,1,14,13.0,0.0,188.7955823349017,300.767,124.372187