Name,SMILES,Solubility,AtomNum,DegFreedom,Dipole,Ghb,Gsasa,Gsolv,HNum,LP,MolWt,NNum,ONum,PiCenters,PiDeloc,Quadrupole,Volume,SASA,Polarizabilty
B-361,[O-][N+](=O)c1ccc(cc1)c2ccccc2,-5.2094,15,39.0,8.045,-0.004367971825,0.0068024128099999,-0.016066508612,0,4,190.1343438,1,2,11,11.0,0.0,165.51816346225132,338.112,123.036938
F-1073,CC1=COC2=CC3=C(C=C(N)C(=O)O3)C=C12,-5.08,16,42.0,4.408,-0.001048458907,0.003526908656,-0.0128964787009999,0,6,206.1337488,1,3,10,12.0,-0.001,170.2700502157644,336.94199999999995,128.651408
F-644,C1=CC=C(C=C1)C2=C(C=CC(=C2)O)[N+](=O)[O-],-3.63,16,42.0,7.181,-0.004164221088,0.009937219875,-0.0159375877829999,0,6,206.1337488,1,3,10,11.0,0.0,174.20274709305818,327.487,127.798362
F-646,C1=CC=C(C=C1)C2=C(C(=CC=C2)O)[N+](=O)[O-],-3.95,16,42.0,9.11,-0.003776434997,0.007795252419,-0.022991640798,0,7,206.1337488,1,3,8,12.0,0.001,174.33717459312575,322.448,127.713827
B-4530,Oc1ccc(cc1[N+]([O-])=O)c2ccccc2,-4.4101,16,42.0,10.586,-0.005699199845,0.011224791029,-0.02857020417,0,6,206.1337488,1,3,13,11.0,-0.001,172.64087164651662,348.015,125.371256
B-2523,Oc1cc(ccc1[N+]([O-])=O)c2ccccc2,-3.8557,16,42.0,14.765,-0.0069059697099999,0.011750516671,-0.041300871594,0,6,206.1337488,1,3,12,10.0,0.001,172.71131687800153,352.496,125.322799
B-1752,Oc1ccc2Nc3ccccc3Sc2c1,-2.5748,14,39.0,8.722000000000001,-0.002594819707,0.003786726075,-0.014274340227,0,5,206.1997263,1,1,9,10.0,0.0,170.93980138254238,328.908,137.635077
F-67,C1=CC2=C(C=C1)SC1=C(C=CC=C1)N2,-5.59,14,36.0,1.778,-2.8527055e-05,-0.002719191197,-0.0043669668569999,0,3,190.2003214,1,0,7,11.0,0.0,163.5314731322087,313.06,133.641083
B-3124,Clc1cc2c(oc3c(Cl)c(Cl)c(Cl)c(Cl)c23)c(Cl)c1Cl,-11.4817,16,54.0,0.3879999999999999,-4.3670704e-05,0.005084230109,-0.004564953896,0,23,408.2987988,0,1,1,7.0,-0.001,264.98518609377027,466.841,215.051087
B-2832,Clc1cc2Oc3c(Cl)c(Cl)c(Cl)c(Cl)c3Oc2c(Cl)c1Cl,-11.4795,17,57.0,0.176,-0.000101986088,0.005292621797,-0.004211487341,0,26,424.29820369999993,0,2,0,6.0,0.0,274.1367660923634,477.095,220.18964900000003
B-2956,Clc1cc(Cl)c(c(Cl)c1Cl)c2c(Cl)c(Cl)c(Cl)c(Cl)c2Cl,-10.1035,16,57.0,0.1689999999999999,-1.17143e-07,0.0052621016749999,-0.003543392712,0,28,463.205269,0,0,0,6.0,0.0,299.87028796861875,497.35,240.504867
B-2954,Clc1cc(Cl)c(Cl)c(c1Cl)c2c(Cl)c(Cl)c(Cl)c(Cl)c2Cl,-10.4115,16,57.0,0.139,-1.1601200000000001e-07,0.0052719155409999,-0.003534629818,0,28,463.205269,0,0,0,6.0,0.001,299.8705581713984,497.444,240.50984900000003
C-1021,ClC1=C(Cl)C(=C(Cl)C(=C1)C2=C(Cl)C(=C(Cl)C(=C2Cl)Cl)Cl)Cl,-9.62,17,57.0,0.072,-1.3124499999999998e-07,0.0053398388269999,-0.004104455601,0,28,463.205269,0,0,0,6.0,0.0,299.91486516310874,503.959,240.513739
H-517,ClC1=C(Cl)C(Cl)=C(Cl)C(OC2=C(Cl)C(Cl)=C(Cl)C(Cl)=C2Cl)=C1,-10.55,17,60.0,0.254,-4.5299009e-05,0.005930890333,-0.002892208931,0,30,479.2046739,0,1,0,6.0,0.0,308.9284986101222,509.302,245.55274100000003
E-52,c(c(c(c1ccc2)c2)ccc3)(c3)C1,-4.91,13,33.0,1.3219999999999998,-2.11465e-07,-0.0041690316299999,-0.004039281229,0,0,156.1395667,0,0,9,11.0,0.0,145.6015641369332,290.712,115.619024
B-4249,CO[P](=S)(Oc1cc(Cl)c(Br)cc1Cl)c2ccccc2,-7.1379,18,54.0,3.128,-0.000293206706,0.000808648376,-0.004392037624,0,16,401.9863289,0,2,7,11.0,0.0,273.3665598291944,487.762,217.97569500000003
C-1498,CO[P](=O)(OC1=C(Cl)C=C(Br)C(=C1)Cl)C2=CC=CC=C2,-4.99,18,54.0,2.584,-0.001770766741,0.002970918517,-0.0058369857849999,0,14,385.9209464,0,3,10,12.0,0.0,259.9031517926851,471.755,202.936748
C-2346,CN1C=C(C(N)=O)C(=C(F)C1=O)NC2=C(F)C=C(Br)C=C2,-4.14,20,57.0,7.595,-0.002278192132,0.0109487139849999,-0.011181771901,0,13,348.05882030000004,3,2,17,12.0,0.001,245.1714136993732,445.919,174.654033
B-2560,Oc1c(Cl)cc(Cl)cc1Cc2ccccc2,-4.6399,16,42.0,9.384,-0.00205652383,0.00294211858,-0.023953020946,0,8,243.04484680000004,0,1,10,10.0,0.0,197.0174968912881,384.577,149.04656
B-4289,Oc1ccc(Cl)cc1Cc2cc(Cl)ccc2O,-3.9528,16,45.0,9.085,-0.002786448243,0.010651519219,-0.01218862756,0,8,259.0442517,0,2,12,10.0,0.0,194.8680343822897,477.708,155.760343
C-2069,OC(=O)C1=CC=CC=C1NC2=CC(=CC=C2)Cl,-5.3,17,45.0,18.646,-0.005991459525,0.007580638477,-0.055050218919,0,7,237.5980173,1,2,10,13.0,0.0,196.5333508834288,360.531,145.685812
B-1713,COc1ccc2Nc3cc(Cl)ccc3Sc2c1,-4.9787,15,45.0,12.058,-0.000142510216,-0.001531688493,-0.024638134857,0,6,253.6633998,1,1,9,10.0,0.0,203.5206290201075,389.764,163.801073
A-6030,Fc1ccc(Cc2ccc(F)cc2)cc1,-6.912156137,15,39.0,0.7390000000000001,-0.000183703406,0.001774294673,-0.003351822514,0,6,194.136373,0,0,8,9.0,0.0,171.99441022175682,332.529,122.208378
F-873,O=C(C1=CC(F)=CC=C1)N(O)C1=CC=CC=C1,-2.6,17,45.0,4.59,-0.003096234482,0.008131912647,-0.016111918231,0,7,221.1434829,1,2,9,12.0,0.0,194.5880470485002,335.885,135.144551
B-2458,Ic1ccccc1C(=O)Nc2ccccc2,-4.2084,16,42.0,1.7919999999999998,-4.121625e-05,-0.006652917054,-0.009045245434,0,5,313.0501467,1,1,9,11.0,0.001,200.3528260563606,364.545,160.022358
B-2824,ON(c1ccccc1)C(=O)c2ccccc2I,-3.5304,17,45.0,7.175,-0.000324847209,-0.0024392520129999,-0.014627736809,0,7,329.0495517,1,2,7,10.0,0.0,209.3798136965692,371.302,164.13991299999998
B-1222,Nc1cccc2nc3ccccc3cc12,-4.222,15,39.0,9.268,-1.2823316e-05,-0.006820904749,-0.024530240116,0,1,184.1529731,2,0,15,14.0,0.0,171.9170137689305,322.812,129.275845
G-1031,O2c1ccccc1N(C)C(=O)c3cccnc23 ,-3.672,17,45.0,4.771,-0.002016435381,0.00015337293,-0.018060886406,0,5,216.151783,2,2,10,12.0,0.001,185.2795596392164,350.07300000000004,139.118896
F-261,O=C(O)C1=C(N=NC2=CC=C(O)C=C2)C=CC=C1,-3.33,18,48.0,10.119,-0.004193880687,0.007826397914,-0.023072167938,0,7,232.1511879,2,3,13,11.0,0.0,195.77540190735945,372.9,143.947255
B-2187,OC(=O)c1ccc(NC(=O)c2cccnc2)cc1,-3.0832,18,48.0,1.635,-0.0013280513039999,0.005643089753,1.6138481e-05,0,5,232.1511879,2,3,14,14.0,0.0,202.31520674401324,392.351,142.97256299999998
F-260,O=C(O)C1=CC=CC(N=NC2=CC=C(O)C=C2)=C1,-3.85,18,48.0,21.825,-0.009446494192,0.011736156547,-0.105839177103,0,6,232.1511879,2,3,17,12.0,0.0,195.27330002994685,403.821,142.504822
F-1196,O=C(O)C1=CC=C(N=NC2=CC=C(O)C=C2)C=C1,-4.38,18,48.0,18.921,-0.008905340481,0.011978569535,-0.092243563581,0,6,232.1511879,2,3,19,10.0,0.0,195.0395195650501,404.304,143.723184
B-1973,OC(=O)C1=C/C(C=CC1=O)=N/Nc2ccccc2,-3.0559,18,48.0,21.677,-0.007023589971,0.010339481552,-0.078388862969,0,4,232.1511879,2,3,17,17.0,0.0,195.09337884227617,398.891,143.75824699999998
F-1197,O=C(O)C1=C(O)C=CC(N=NC2=CC=CC=C2)=C1,-3.05,18,48.0,17.537,-0.006915974885,0.009986103756,-0.07522613862,0,6,232.1511879,2,3,16,15.0,0.0,195.65258803751263,398.561,139.625197
A-4854,O[S](=O)(=O)c1ccc2nc([nH]c2c1)c3ccccc3,-2.961106136,19,51.0,13.804,-0.013910804235,0.0089342656019999,-0.038730361355,0,8,264.2159753,2,3,15,17.0,-0.001,205.81016334928228,398.11300000000006,163.874354
B-9,O=C1CCC(N2C(=O)c3ccccc3C2=O)C(=O)N1,-2.6758,19,51.0,13.834,-0.00439774771,0.0131437976599999,-0.024826809224,0,8,248.15059280000003,2,4,18,16.0,0.0,195.00662299543347,366.742,148.08361599999998
C-2180,OC(=O)C1=CC=CC=C1NC2=CC(=CC=C2)[N+]([O-])=O,-6.43,19,51.0,8.551,-0.006653311355,0.014438521416,-0.0261197274049999,0,8,248.15059280000003,2,4,11,11.0,0.0,202.656753906219,382.56,148.26356
A-1160,Nc1scc(n1)c2ccc3ccccc3c2,-4.849542252,16,42.0,12.707,-1.8808206e-05,-0.003739595939,-0.024799879357,0,3,216.2177605,2,0,14,12.0,0.0,197.4244405903737,382.632,149.705573
C-1425,O=C1NC=NC2=C1C=N[N]2COC(=O)C3=CC=CC=C3,-4.05,20,54.0,6.12,-0.00234978544,0.002145473635,-0.017544119391,0,7,260.1645943,4,3,23,15.0,0.0,222.76758291537757,399.795,157.013802
A-1304,O=C(c1ccccc1)c2ccccc2,-3.882202908,14,36.0,4.351,-0.001612265266,0.001209986754,-0.008885533564,0,2,172.1389716,0,1,8,11.0,0.0,161.65911704569226,302.449,120.135004
E-1251,c1ccccc1C(=O)Oc2ccccc2,-2.85,15,39.0,10.069,-0.000111762945,-0.000609196787,-0.0149747063669999,0,2,188.1383765,0,2,11,11.0,0.0,170.5188619613837,326.305,125.180185
C-1284,OC(=O)C1=C(C=CC=C1)C2=CC=CC=C2,-2.73,15,39.0,10.913,-0.00525918362,0.006935341057,-0.0349991742169999,0,2,188.1383765,0,2,10,14.0,0.0,168.83827748599762,326.845,122.386621
F-32,CC1=CC2=CC3=C(C=C2O1)OC(=O)C=C3C,-5.23,16,42.0,4.362,-0.002327852665,0.00678734772,-0.010947726425,0,6,204.1377815,0,3,9,12.0,0.0,175.2571954851136,322.395,126.400784
A-1239,Oc1ccc(cc1O)C(=O)c2ccccc2,-2.92262005,16,42.0,4.296,-0.0032143036239999,0.013476971212,-0.007492465265,0,4,204.1377815,0,3,11,12.0,-0.001,174.24986117341027,359.62,130.225498
A-1665,Oc1ccccc1C(=O)Oc2ccccc2,-3.154768756,16,42.0,7.398,-0.001995769067,0.002983921806,-0.017875680996,0,4,204.1377815,0,3,10,10.0,-0.001,177.166542583542,333.196,130.125643
A-167,O=C(Oc1ccccc1)Oc2ccccc2,-4.216916663,16,42.0,10.704,-0.000176780387,0.000897732791,-0.018128614957,0,3,204.1377815,0,3,14,12.0,0.001,179.26750061759282,339.333,130.28548
F-1074,COC1=CC2=C(C=C3OC=C(C)C3=C2)OC1=O,-5.0,17,45.0,3.9,-0.000336180798,0.00588985282,0.000978063314,0,7,220.1371864,0,4,9,12.0,-0.001,183.15567782929108,343.291,136.08046299999998
A-178,Oc1ccc(c(O)c1O)C(=O)c2ccccc2,-3.345107824,17,45.0,5.783,-0.0036635412799999,0.012389113004,-0.0146482581,0,7,220.1371864,0,4,11,11.0,0.0,183.2461196513985,340.03,134.498121
B-2005,Oc1cc(O)c(c(O)c1)C(=O)c2ccccc2,-1.8708,17,45.0,5.325,-0.0044750604479999,0.017877535267,-0.006275483968,0,8,220.1371864,0,4,13,10.0,0.0,185.52285583563915,349.03,130.596631
D-1687,Oc1cc(O)c(c(O)c1)C(=O)c2ccc(O)c(O)c2,-1.72,19,51.0,12.1,-0.005876464699,0.0258016632329999,-0.026458739193,0,9,252.1359962,0,6,17,15.0,0.0,199.57791684248272,395.666,143.959367
B-2763,CC12CC1(C)C(=O)N(C2=O)c3cc(Cl)cc(Cl)c3,-4.8003,16,48.0,7.87,-0.002079125201,0.0058106766949999,-0.013290093462,0,12,273.0509549,1,2,10,10.0,0.0,215.00591939774608,394.345,158.25923600000002
B-3287,CCOC(=O)C1(C)OC(=O)N(C1=O)c2cc(Cl)cc(Cl)c2,-5.2203,19,57.0,35.33,-0.006587691199,0.016488310161,-0.086563865738,0,16,321.0491697,1,5,14,12.0,0.0,246.12169320297872,477.86300000000006,176.09776200000002
A-3066,Nc1ccc(OCc2cccc(F)c2)c(Cl)c1,-4.693292334,16,45.0,10.198,-0.0001182978559999,-0.000847181161,-0.0338629074269999,0,8,240.5970156,1,1,8,10.0,-0.001,198.1231021785444,370.436,144.740016
B-3492,CCC1=C(C(O)=O)C(=O)C=NN1c2ccc(Cl)cc2,0.4,18,51.0,19.286,-0.006583682414,0.0121234799759999,-0.057350966663,0,7,267.6041255,2,3,16,12.0,0.0,215.39002628262705,390.265,156.932715
B-705,Oc1ccc(Cl)cc1Cc2ccccc2,-3.1666,15,39.0,6.03,-0.001704880388,0.00317844095,-0.0113146670879999,0,4,207.5919092,0,1,14,10.0,0.0,180.0401400374912,396.185,134.912543
B-698,OC(c1ccccc1)c2ccc(Cl)cc2,-3.4886,14,39.0,4.524,-0.0017475852,0.002861773571,-0.008601217968,0,5,207.5919092,0,1,9,11.0,-0.001,179.42456492380168,337.569,134.805299
A-2836,N=C(c1ccccc1)c2ccccc2,-2.7811280060000003,14,36.0,1.885,-2.318572e-06,-0.005497773106,-0.0077257585599999,0,1,170.1462699,1,0,8,11.0,0.0,164.7529851391509,317.613,118.476536
B-359,Nc1ccc2cc3ccc(N)cc3nc2c1,0.3783,16,42.0,0.504,-1.1844437e-05,-0.009668308103,-0.020433438152,0,2,198.1596763,3,0,12,12.0,0.0,202.1324711446323,361.924,136.10908500000002
A-2545,Cc1ccc(O)c(c1)n2nc3ccccc3n2,-5.352666728,17,45.0,3.885,-0.001196554892,-0.0015707817189999,-0.013412210857,0,5,214.1590812,3,1,9,13.0,0.0,189.1060974647737,349.126,140.78983
C-2053,O=C(NNC(=O)C1=CC=NC=C1)C2=CC=CC=C2,-2.54,18,48.0,4.578,-0.002811315629,0.002979160205,-0.019273537008,0,5,230.1584862,3,2,12,13.0,0.001,200.3602730188903,375.038,144.072614
B-2687,O=C(NC(=O)c1cccnc1)Nc2ccccc2,-3.3825,18,48.0,5.502000000000001,-0.003125780499,0.005584850473,-0.01077093404,0,7,230.1584862,3,2,11,12.0,0.0,200.62514965721425,349.899,144.69215
B-1009,O=C(NN\C=C/1C=CC=CC1=O)c2ccncc2,-3.6835,18,48.0,5.542999999999999,-0.0034813505729999,0.004289663668,-0.019845849739,0,4,230.1584862,3,2,14,14.0,0.0,175.36025163389488,437.336,146.950019
B-1008,O=Nc1ccc(NNC(=O)c2ccccc2)cc1,-4.6835,18,48.0,7.38,-0.00320340042,0.006488840766,-0.012000324116,0,6,230.1584862,3,2,15,12.0,0.0,200.8454312381496,378.3730000000001,139.469743
F-874,O=C(NO)C1=C(N=CC2=CC=CC=N2)C=CC=C1,-3.21,18,48.0,4.988,-0.001593533964,0.001086542649,-0.0100908738249999,0,7,230.1584862,3,2,11,13.0,0.0,199.4139062761652,369.758,145.878692
C-1464,CCOC(=O)[N]1C2=C(C=CC=C2)N=C1C3=CSC=N3,-2.92,18,51.0,7.545,-0.001529599846,-0.000110619898,-0.020435881733,0,7,262.2232736,3,2,16,13.0,0.0,213.5556265882116,401.014,165.890743
C-844,NC1=CC=C(C=C1)[S](=O)(=O)NC2=CC=C(C=C2)C#N,-3.6,19,51.0,5.682,-0.0074342686769999,0.001119711764,-0.033221760832,0,10,262.2232736,3,2,10,9.0,-0.001,226.1202459022463,393.838,159.606619
A-5091,CC1=CC(=N/Nc2ccccc2[N+]([O-])=O)\C(=O)C=C1,-5.747595864,19,51.0,9.57,-0.005423589889,0.008920027338,-0.028779738328,0,8,246.1578911,3,3,14,11.0,-0.001,207.9944705406845,395.005,151.15058
A-243,Cc1ccc(cc1)[S](=O)(=O)/C(=C/N2CC(=O)NC2=S)C#N,-3.529299295,20,57.0,4.865,-0.008760584775,0.009771800666,-0.037632000994,0,9,310.2874659,3,3,21,17.0,0.0,253.3423981191936,440.213,191.540234
C-2527,CN1C(=C(O)C2=C(C=CS2)[S]1(=O)=O)C(=O)NC3=NC=CC=C3,-3.88,22,60.0,6.247000000000001,-0.00869555851,0.010160375148,-0.039545960893,0,13,326.28687080000003,3,4,18,15.0,0.0,252.2450865142893,431.185,195.146437
B-4439,Oc1ccccc1C(=O)Nc2ccccc2,-3.5885,16,42.0,4.721,-0.0010745042599999,0.00129976522,-0.008009384986,0,4,202.1450798,1,2,11,13.0,0.0,179.35743266352156,334.685,131.818504
F-420,O=C(C1=CC=CC=C1)N(O)C1=CC=CC=C1,-2.73,16,42.0,9.068,-0.003310510114,0.005163145848,-0.023025753433,0,5,202.1450798,1,2,9,11.0,0.0,179.75507274620205,321.551,132.010155
C-583,OC(=O)C1=CC=CC=C1NC2=CC=CC=C2,-4.96,16,42.0,6.357,-0.002610808679,0.004571009486,-0.01242967416,0,4,202.1450798,1,2,9,11.0,-0.001,179.98159784755282,321.513,130.98057
A-3135,[O-]C(=O)c1ccc[n+](Cc2ccccc2)c1,0.519220267,16,42.0,21.904,-0.007937315507,0.006403742963,-0.0767625462469999,0,4,202.1450798,1,2,9,11.0,0.0,186.02933075051467,341.616,130.238268
B-4150,Cc1cccc(Oc2ccc(cc2)[N+]([O-])=O)c1,-4.6613,17,45.0,6.856,-0.004217163255,0.009377067751,-0.012730477127,0,6,218.1444847,1,3,9,10.0,0.0,190.8824049100409,348.807,136.842746
B-4552,Nc1ccc(c(O)c1)C(=O)Oc2ccccc2,-4.5152,17,45.0,8.339,-0.0025930148899999,0.0016706961979999,-0.0241164725419999,0,5,218.1444847,1,3,14,12.0,0.001,188.76622911368904,345.121,136.307209
C-2048,OC(=O)C1=CC=CC=C1NC2=CC(=CC=C2)O,-3.54,17,45.0,5.57,-0.004803047588,0.009645897424,-0.0240538549239999,0,6,218.1444847,1,3,8,11.0,0.0,185.6846128900497,352.18699999999995,135.32443999999998
F-807,COC1=C2OC=CC2=C(CN)C2=C1OC(=O)C=C2,-0.9,18,48.0,5.235,-0.002428168013,0.0027012324959999,-0.036497247358,0,9,234.1438896,1,4,10,11.0,0.0,190.05285584705624,370.96,142.51760900000002
F-995,CCN1C=C(C(=O)O)C(=O)C2=C1C=C1OCOC1=C2,-4.38,19,51.0,10.265,-0.004574614563,0.0143010986679999,-0.036106100867,0,8,250.1432945,1,5,16,14.0,0.0,196.4510875954312,375.911,147.616763
A-4156,OC(=O)CC[C@H](N1C(=O)c2ccccc2C1=O)C(O)=O,-1.446331686,20,54.0,10.0,-0.005674166519,0.022364082166,-0.009220811207,0,10,266.1426994,1,6,19,15.0,0.0,212.4677404807464,410.853,151.47902
B-1639,CN1c2ccccc2Sc3ccccc13,-5.5934,15,39.0,2.086,-8.072920000000001e-07,-0.002473773723,-0.003577889291,0,3,202.2110573,1,0,7,12.0,0.0,177.94595429325886,332.89300000000003,143.785783
F-567,O=C(O)C1=CC=C(P(=O)(O)C2=CC=CC=C2)C=C1,-4.07,18,48.0,10.89,-0.004546920243,0.014309632156,-0.01817743376,0,4,251.1109484,0,4,18,14.0,0.0,208.93272455279745,400.573,157.998835
B-4072,Cc1ccc(cc1)c2ccccc2,-4.6185,13,33.0,4.731,-9.40192e-07,-0.004217989534,-0.005608562916,0,1,156.1395667,0,0,5,9.0,-0.001,157.19182529355763,294.126,113.643777
E-51,c1ccccc1Cc2ccccc2,-4.17,13,33.0,8.485,-8.33987e-07,-0.00443493637,-0.015577823485,0,0,156.1395667,0,0,9,7.0,0.0,155.1361206007365,309.254,115.11865
B-3451,Clc1ccc(c(Cl)c1)C2(CC(Br)CO2)Cn3cncn3,-3.8775,19,54.0,5.335,-0.002628476224,0.000620082769,-0.025739267303,0,12,364.9684842,3,1,14,10.0,0.0,248.2711376343679,485.177,188.08061
A-5035,Nc1ccc(Cc2ccc(N)c(Cl)c2)cc1Cl,-4.286890723,16,45.0,6.66,-1.0904162e-05,-0.006601824282,-0.019091884261,0,8,255.0588483,2,0,22,10.0,0.0,192.9726115579576,488.337,159.744543
F-847,NC(=NO)N1CC2=CC=CC3=C(Cl)C=CC(=C23)C1,-2.0,17,48.0,6.891,-0.000107702157,-0.0027377173239999,-0.009370344772,0,7,249.6120188,3,1,10,10.0,0.0,211.30534305177983,360.622,155.149431
G-686,OC(Cn1cncn1)(Cn2cncn2)c3ccc(F)cc3F ,-1.8,22,60.0,6.281000000000001,-0.001618475454,0.000120269511,-0.022303503364,0,11,294.1759972,6,1,19,15.0,0.0,242.9331779629856,449.794,166.69198400000002
A-5041,N[S](=O)(=O)c1ccc(NC(=S)Nc2ccc(F)cc2)cc1,-2.989959968,20,57.0,2.704,-0.008319283558,0.009827017315,-0.021784464176,0,14,313.28646410000005,2,2,15,10.0,0.001,258.0978251175303,438.958,187.367846
F-222,COC1=CC2=C(C=C1)C1=C(N2)C(C)=NC=C1,-4.48,16,42.0,8.552999999999999,-6.8925245e-05,-0.00611443591,-0.02484452039,0,4,200.152378,2,1,11,11.0,0.0,177.0310996053259,348.871,136.628371
F-531,NC1=C(C=NC2=C(O)C=CC=C2)C=CC=C1,-3.64,16,42.0,7.606,-0.0009482917979999,-0.004296786878,-0.01610338215,0,3,200.152378,2,1,9,14.0,0.0,157.09299432591362,393.19,134.68705400000002
A-2872,NC(=O)c1ccc[n+](Cc2ccccc2)c1,0.293610373,16,42.0,5.922000000000001,-0.000587417787,-0.0023665878909999,-0.100457843732,0,5,200.152378,2,1,7,8.0,0.001,185.20798337401496,332.93699999999995,129.79198200000002
B-2475,Oc1cc2ccccc2cc1C3=NCCN3,-3.3015,16,42.0,10.045,-0.0008880033079999,-0.001060882738,-0.018832146366,0,4,200.152378,2,1,8,13.0,0.001,144.66849175738616,419.48800000000006,133.12508
B-454,O=C(Nc1ccccc1)Nc2ccccc2,-3.1508,16,42.0,4.2780000000000005,-0.000178292128,-0.002678398102,-0.007254432671,0,2,200.152378,2,1,9,10.0,0.0,183.1117051024612,322.716,132.749272
C-2041,NC1=CC=CC(=C1)NC2=CC=CC=C2C(O)=O,-4.09,17,45.0,4.631,-0.002383453973,-0.000332515603,-0.018186597777,0,5,216.151783,2,2,12,14.0,-0.001,206.4143329005084,381.388,138.326018
E-521,c1ccccc1C2(CC=C)C(=O)NC(=O)NC2=O,-2.18,18,48.0,9.321,-0.002767206629,0.008026310557,-0.010865125947,0,5,232.1511879,2,3,15,15.0,0.0,203.07391841436043,376.027,145.17718200000002
B-760,Nc1ccc(cc1)[S](=O)(=O)NC(=O)c2ccccc2,-2.9501,19,51.0,10.078,-0.00707345939,0.004943183949,-0.0438292068659999,0,8,264.2159753,2,3,15,14.0,-0.001,215.93834563628343,406.608,166.23922
B-4324,Nc1ccc(N)c(c1)[S](=O)(=O)c2ccccc2C(O)=O,-1.8395,20,54.0,8.599,-0.008432079277,0.0055351828249999,-0.054283589343,0,9,280.2153802,2,4,22,15.0,0.0,218.81677081383089,421.356,169.5186
F-751,NC1=CC=C(S(=O)(=O)NC2=C(C(=O)O)C=CC=C2)C=C1,-0.8,20,54.0,4.817,-0.010763463759,0.011141902738,-0.038882023166,0,11,280.2153802,2,4,8,11.0,0.0,232.56839775283643,371.091,169.038521
C-2343,COC1=CC=C(N[S](=O)(=O)C2=CC=C(C=C2)[N+]([O-])=O)C=C1,-4.64,21,57.0,13.996,-0.010797793366,0.014390362353,-0.038091958482,0,12,296.21478510000003,2,5,13,12.0,0.0,231.7285154117621,454.92800000000005,173.161768
F-474,CS(=O)(=O)NC1=C(C=C(C=C1)[N+](=O)[O-])OC2=CC=CC=C2,-4.49,21,57.0,11.741,-0.008640296018,0.014588598584,-0.035719885967,0,9,296.21478510000003,2,5,16,17.0,0.0,242.46721791662085,395.271,174.350899
A-1286,S=C(Nc1ccccc1)Nc2ccccc2,-3.971688427,16,42.0,3.812,-7.984573000000001e-06,-0.002948502522,-0.005800947703,0,3,216.2177605,2,0,8,11.0,0.0,195.9243729405904,336.141,148.598135
C-2291,CN1C(=O)N(C)C2=C([NH]C(=N2)C3=CC=CC=C3)C1=O,-5.0,19,51.0,3.293,-0.0017246771919999,0.00292720625,-0.0150731402059999,0,8,244.1651894,4,2,16,12.0,0.0,204.8976313325795,388.664,152.91676299999995
C-1003,CC(=O)NC1=C(N[S](=O)(=O)C2=CC=C(C=C2)[N+]([O-])=O)C=NC=C1,-3.39,23,63.0,12.307,-0.0119381663189999,0.019405035249,-0.03210849416,0,11,324.2281916,4,5,19,19.0,0.0,258.6537586287801,447.889,188.406799
C-2062,S=C(NNC1=CC=CC=C1)N=NC2=CC=CC=C2,-6.61,18,48.0,7.797999999999999,-2.29978e-06,-0.0058090454799999,-0.011718702744,0,4,244.23116690000003,4,0,14,11.0,0.0,216.59810734301695,396.026,163.062814
B-3793,OC(c1ccccc1)c2ccccc2,-2.5494,14,36.0,4.331,-0.001612947224,0.001211456727,-0.0088741395589999,0,2,172.1389716,0,1,8,11.0,0.0,161.66666779940192,302.448,120.136167
B-451,Oc1ccc(Cc2ccccc2)cc1,-3.4009,14,36.0,11.422,-0.002357518238,0.001893698088,-0.019273936085,0,2,172.1389716,0,1,8,10.0,0.0,162.54208755232676,326.36,115.826235