Name,SMILES,Solubility,AtomNum,DegFreedom,Dipole,Ghb,Gsasa,Gsolv,HNum,LP,MolWt,NNum,ONum,PiCenters,PiDeloc,Quadrupole,Volume,SASA,Polarizabilty
A-1473,CC(C)OC(=O)CCCCCCCCC(=O)OC(C)C,-5.155961214,20,54.0,1.783,-0.0033231393109999,0.006709313115,-0.021650394073,0,8,256.16939410000003,0,4,12,16.0,0.0,241.88442259849788,503.549,162.580072
A-5536,CCCCCCCC(=O)OOC(=O)CCCCCCC,-7.61189317,20,54.0,2.445,-0.003825780184,0.006932294762,-0.03025614313,0,10,256.16939410000003,0,4,4,10.0,0.0,236.8475259396183,517.8580000000001,165.383708
A-5238,CC(C)CC(C)OC(=O)CC(C(=O)OC(C)CC(C)C)[S]([O-])(=O)=O,0.109625935,24,66.0,2.653,-0.0116115665809999,0.0117798217369999,-0.092808825886,0,20,336.2323963,0,7,14,13.0,0.0,288.5569265632465,497.745,200.992753
D-950,CCCCCCCCCCCCN1CCCC1=O,-4.67,18,48.0,4.306,-0.001926240006,-0.001027970312,-0.019650914401,0,3,222.1778825,1,1,6,12.0,0.0,215.1207794302645,469.999,156.074389
A-996,CCCCCCCCCCCC1=NCCN1CCO,-3.898655621,19,51.0,6.871,-0.001905904486,-0.001140179285,-0.025205707947,0,3,236.1845857,2,1,7,13.0,0.001,224.4612868809916,485.979,163.149995
F-247,O=C(NCCCCCCNC(=O)OCCCCO)OCCCCO,-1.93,24,66.0,16.019000000000002,-0.005496598942,0.018163013686,-0.016432779653,0,8,316.1816103,2,6,22,22.0,0.0,270.9420186961517,587.785,187.096558
A-2901,CN(C)C(=O)NC[C@@]1(C)C[C@@H](CC(C)(C)C1)NC(=O)N(C)C,-1.893818753,22,60.0,1.602,-0.004237865191,0.003402124497,-0.035763938802,0,9,280.19739710000005,4,2,17,17.0,0.0,281.0816093997716,506.75,179.986898
A-2703,CCCCCCCCCCCCCCC1CO1,-6.682020457999999,17,45.0,8.391,-0.000447958558,-0.001921171168,-0.015152309591,0,3,208.1711793,0,1,5,16.0,0.001,204.19058452564576,471.566,149.872213
A-2262,CCCCCCCCCCCCCCCC(O)=O,-6.806908841,18,48.0,37.917,-0.008863723108,0.005454846104,-0.110775345972,0,5,224.1705842,0,2,4,12.0,0.0,216.73482915781003,490.906,154.319988
A-2732,CCCCCCCCOC(=O)CCCCCCC,-6.709998828,18,48.0,9.107,-0.0024712951879999,0.000327326417,-0.023396590865,0,5,224.1705842,0,2,5,13.0,0.0,220.18256350161843,491.116,155.950031
A-6026,CCCCCCCCCCCC(=O)OCC(C)C,-7.931847577999999,18,48.0,16.492,-0.0026120516709999,0.000339370458,-0.036433915093,0,4,224.1705842,0,2,7,15.0,0.0,229.17068360721592,491.032,155.922815
A-5734,CCCCC(CC)C(=O)OOC(C)(C)CC(C)(C)C,-5.94953191,19,51.0,7.165,-0.001513751613,0.000809148238,-0.016649384384,0,8,240.1699892,0,3,12,15.0,0.0,250.20675791927945,467.489,155.595336
A-2537,CCC(C)(C)OOC1(CCCCC1)OOC(C)(C)CC,-5.460037419,20,54.0,4.893,-0.000299428753,-1.5528689e-05,-0.010889691751,0,10,256.16939410000003,0,4,14,14.0,0.001,260.81045426273363,427.427,162.084044
A-5267,CCCC(CCC)CCCC1COCCN1CCO,0.964258162,19,51.0,22.557,-0.00155560963,0.000290775615,-0.052562578051,0,3,238.1772874,1,2,14,20.0,0.0,207.94380100687357,506.852,163.085161
A-5459,CC(CC(C)(C)C)CC(C)(C)CC(C)(C)C,-3.354968489,16,42.0,3.045,-2.330905e-06,-0.006033556951,-0.014709361738,0,4,192.1717744,0,0,9,14.0,0.0,242.94201306892705,420.728,140.56213799999998
B-1151,CCCCCCCCCCCCCCCC,-8.4007,16,42.0,0.119,-2.929831e-06,-0.006617066533,-0.020363325423,0,2,192.1717744,0,0,0,15.0,0.0,203.4919771748745,461.417,146.530872
B-2815,CCCCCCCCCCCCCCCCO,-6.7697,17,45.0,8.533999999999999,-0.001162347316,-5.2222717e-05,-0.014746416695,0,2,208.1711793,0,1,3,15.0,0.0,208.7660246114316,474.7480000000001,150.215404
B-2717,CCCCCCCCCCCCC(O)CCC,-6.7708,17,45.0,8.586,-0.002216376946,-5.395684e-06,-0.02921994206,0,3,208.1711793,0,1,6,14.0,0.0,212.27962621440795,468.255,150.403821
A-2553,CCCCCCCCC(CO)CCCCCC,-5.384616815,17,45.0,9.768,-0.000180899287,-0.000330874696,-0.023512983743,0,3,208.1711793,0,1,9,14.0,0.0,210.9722125793084,471.49300000000005,151.238407
A-2644,CCCCCCCCOCCCCCCCC,-6.384616815,17,45.0,5.535,-1.377181e-05,-0.004752666197,-0.02791182729,0,3,208.1711793,0,1,8,18.0,-0.001,212.5301461158289,480.781,151.839762
A-4955,CCCCCCCCCCCCCCCCN,-3.583510043,17,45.0,2.375,-7.685811e-06,-0.00879063837,-0.022403506801,0,2,206.1784776,1,0,5,14.0,0.0,212.19554542199103,478.024,151.79669199999998
A-1199,CCCCCCCCCCCCCCN(C)C,-3.935692561,17,45.0,5.15,-2.838523e-06,-0.00692034088,-0.019624921106,0,3,206.1784776,1,0,2,10.0,0.0,216.60366101068612,476.643,152.42443799999998
A-5034,CCCCC(CC)CNCC(CC)CCCC,-4.236722556,17,45.0,0.159,-3.960786e-06,-0.007017999332,-0.029814554165,0,2,206.1784776,1,0,8,15.0,0.0,217.0223278510579,474.165,155.31052
A-5040,CC(CC(C)(C)C)C[P](O)(=O)CC(C)CC(C)(C)C,-4.3661284710000015,19,51.0,4.966,-0.002411131297,0.002480380667,-0.028628987973,0,9,255.1443462,0,2,12,17.0,0.0,263.8480681644881,459.207,171.347906
A-1478,CCCCCCCCCCCCCCCCO[P](O)([O-])=O,-3.260259354,21,57.0,51.85,-0.005962769902,0.011685231398,-0.151361570866,0,8,287.1431561,0,4,10,20.0,0.0,252.7285929820753,553.775,190.78696
A-4918,CCCCC(CC)CO[P](O)(=O)OCC(CC)CCCC,-3.36230202,21,57.0,3.7,-0.012003298677,0.003134974345,-0.032491702984,0,10,287.1431561,0,4,15,15.0,0.0,262.42388396831933,510.336,189.550368
A-441,CCCC[N+](CCCC)(CCCC)CCCC,1.332024844,17,45.0,0.054,-3.214280000000001e-07,-0.006731516844,-0.103300911375,0,0,206.1784776,1,0,24,9.0,0.0,218.8210156895658,469.398,151.8996
A-5414,CC(C)CCCCCCCOCCCNCCCN,-3.204880928,19,51.0,21.961,-4.8620582e-05,-0.008274980148,-0.052211166503,0,2,236.1845857,2,1,9,12.0,0.0,239.4590412090132,517.003,164.325932
A-5113,CCCC[P+](CCCC)(CCCC)CCCC,0.41483097,17,45.0,0.049,-0.00104901849,-0.00685225905,-0.093614485803,0,0,223.1455364,0,0,20,10.0,0.0,228.8131624619291,494.965,168.005048
B-3509,Fc1ccc2N=C(n3cncn3)N(C(=O)c2c1)c4ccc(Cl)cc4Cl,-5.5754,24,69.0,1.084,-0.001061164025,-4.144551e-06,-0.0145642119409999,0,14,368.1089737,5,1,13,14.0,-0.001,279.1081104869924,457.671,210.564529
B-2309,OC(=O)c1ccc2C(=O)c3ccccc3C(=O)c2c1C(O)=O,-2.8141,22,60.0,6.459,-0.005391315353,0.018103590115,-0.01944976683,0,11,288.1682039,0,6,13,13.0,0.001,230.87008085045,392.503,170.280277
A-6060,O=C1NC(=O)C(C(=O)N1)=C2NC(c3ccccc23)=C4C(=O)NC(=O)NC4=O,-7.564993732,27,75.0,14.012,-0.007024545722,0.017944640571,-0.052583407812,0,10,358.20172,5,6,22,21.0,0.0,269.0102547320759,441.367,202.936311
B-2167,[O-][N+](=O)c1ccc2ccc3cccc4ccc1c2c34,-7.3213,19,51.0,9.316,-0.004244989104,0.0054080847889999,-0.019812187335,0,4,238.1772874,1,2,10,11.0,0.0,198.3903998247254,353.349,158.71278700000002
B-1540,[O-][N+](=O)c1ccc2c3ccccc3c4cccc1c24,-7.1031,19,51.0,8.321,-0.0040352397989999,0.0053435597569999,-0.0169036365009999,0,5,238.1772874,1,2,10,16.0,0.0,198.3049457237793,362.239,158.564382
A-2232,CN1C(=O)C=C2c3ccccc3C(=O)c4c(Br)ccc1c24,-6.6804453210000005,20,57.0,2.0580000000000003,-0.002012122399,0.003707887116,-0.01663242966,0,7,330.09155110000006,1,2,14,14.0,0.0,238.8263981087773,417.611,189.959476
C-2549,FC(F)(F)N=C1SC(=NC2=CC=CC=C2)N(C3=CC=CC=C3)C1=NC(F)(F)F,-5.42,28,78.0,21.524,-0.000656428063,0.007564254691,-0.052470714165,0,22,406.2645295,4,0,15,13.0,0.0,305.5262954729824,479.299,216.557133
A-6059,CC\1=NN2C(=O)c3ccccc3N=C2C1=N/Nc4ccc(Cl)cc4[N+]([O-])=O,-7.582934487999999,26,75.0,9.756,-0.004847302576,0.006050886983,-0.031691636289,0,12,371.6738819,6,3,25,21.0,0.001,289.0683894540356,512.345,223.120305
B-3585,C1c2ccccc2c3cc4ccccc4cc13,-7.733,17,45.0,1.873,-1.6399799999999998e-07,-0.005044833523,-0.005228609223,0,0,204.1825103,0,0,10,15.0,0.0,192.7353952065997,351.783,151.651834
B-2738,C1c2ccccc2c3ccc4ccccc4c13,-6.678,17,45.0,0.56,-2.39365e-07,-0.004959386069,-0.005077667081,0,0,204.1825103,0,0,9,11.0,0.0,186.7467820706546,345.825,150.93181
B-3052,OC(c1ccc(Cl)cc1)(c2cncnc2)c3ccccc3Cl,-4.374,22,60.0,7.471,-0.002705532088,-0.000519381094,-0.032214478514,0,10,319.1011968,2,1,5,13.0,-0.001,261.7915110855966,440.584,193.518272
A-5065,CC(=O)OC1N=C(c2ccccc2Cl)c3cc(Cl)ccc3NC1=O,-5.028666923,22,66.0,29.391,-0.004126232873,0.005373601607,-0.101400757883,0,11,351.10000660000003,2,3,16,17.0,-0.001,275.3751577101146,456.822,209.017992
C-1037,CC1=NN=C2CN=C(C3=CC=CC=C3Cl)C4=C(C=CC(=C4)Cl)[N]12,-4.08,21,63.0,7.94,-2.79103e-06,-0.005548053914,-0.0147860475989999,0,9,331.1151983,3,0,11,14.0,0.0,266.3746635091431,434.336,207.307068
B-3083,OC(c1ccc(F)cc1)(c2cncnc2)c3ccccc3Cl,-4.083,22,60.0,12.57,-0.003765509941,0.0015429805739999,-0.047373480903,0,9,302.6466624,2,1,8,14.0,0.0,250.8260760439941,400.251,185.489289
A-2047,Oc1cc2ccccc2cc1C(=O)Nc3ccc(Cl)cc3,-5.473838643,20,57.0,7.367000000000001,-0.001261673771,0.003257552627,-0.011118479687,0,6,285.6409609,1,2,8,16.0,0.0,80.33080644582591,508.482,183.373065
F-901,O=C(C1=CC2=C(C=CC=C2)C=C1)N(O)C1=CC=C(Cl)C=C1,-5.47,20,57.0,15.909,-0.000213340839,0.001294814233,-0.021326775065,0,6,285.6409609,1,2,10,14.0,0.0,245.2523994178812,421.753,182.934762
B-2521,OC(=O)Cc1sc(nc1c2ccc(Cl)cc2)c3ccccc3,-4.9644,21,60.0,15.774,-0.0066504619389999,0.005754541899,-0.074311486247,0,9,317.7057483,1,2,14,16.0,0.0,261.31123696429887,438.831,200.687532
A-3891,[O-][S](=O)(=O)C1=CC(=O)C2=C(NNc3ccccc3C(F)(F)F)C(=N)C=CC2=C1,-2.068630062,28,78.0,23.913,-0.017241053789,0.020432682535,-0.090590609102,0,22,399.2602365,3,4,11,15.0,0.0,293.4246624262878,502.9,223.45509500000003
A-2233,Oc1cc2ccccc2cc1C(=O)Nc3cccc(c3)[N+]([O-])=O,-6.643865624,23,63.0,25.503,-0.0053052529209999,0.012781073038,-0.028295892035,0,7,296.1935364,2,4,14,17.0,0.0,73.82000231875625,521.255,185.312802
F-1112,CN1C=CC2=C1C=C1N=CN=C(NC3=CC(Br)=CC=C3)C1=C2,-3.31,21,60.0,6.455,-8.0053051e-05,-0.008616355975,-0.013407993513,0,7,340.1128509,4,0,14,15.0,0.0,263.27300589667163,453.768,199.322921
B-3297,Clc1ccc(CSC(Cn2cncn2)=Nc3ccc(Cl)cc3Cl)cc1,-5.3842,23,69.0,10.33,-0.000114009481,-0.001796278041,-0.020708191985,0,13,398.6329233,4,0,13,13.0,0.0,321.9835587257753,492.353,237.381942
C-1456,CC(OC1=CC=C(OC2=NC=C(Cl)C=C2F)C=C1)C(=O)OCC#C,-5.15,23,66.0,11.767,-0.001788740265,0.007333813692,-0.012467465984,0,14,336.6381739,1,4,19,16.0,0.0,279.6091075806259,528.1469999999999,194.88132
B-3402,C[C@@H](Oc1ccc(Oc2ncc(Cl)cc2F)cc1)C(=O)OCC#C,-4.9417,23,66.0,5.667999999999999,-0.0004166106429999,0.00638109608,-0.008038418915,0,14,336.6381739,1,4,16,16.0,0.0,278.97132752636884,519.665,196.904464
B-3232,CC(Oc1ccc(Oc2cnc3cc(Cl)ccc3n2)cc1)C(O)=O,-6.0604,23,66.0,51.528,-0.009752076664,0.011718230516,-0.143283403964,0,10,331.646474,2,4,17,16.0,-0.001,278.51404563233405,490.476,199.00147
C-1012,CC1=NN=C2CN=C(C3=CC=CC=C3)C4=C(C=CC(=C4)Cl)[N]12,-3.6,21,60.0,6.164,-2.583711e-06,-0.00665581261,-0.01440007602,0,5,295.6622607,3,0,11,14.0,0.001,250.1376363484484,393.804,192.171377
C-1411,OC(=O)C(=C)CC(=O)C1=CC=C(C=C1)C2=CC=CC=C2Cl,-3.2,21,57.0,9.695,-0.002363547617,0.00656719863,-0.015295248751,0,8,287.63366260000004,0,3,16,16.0,-0.001,249.6216428076476,462.571,179.817222
A-5754,Cc1ccc(N\N=C2/C(=O)C=Cc3ccccc23)c(c1)[N+]([O-])=O,-7.96906134,23,63.0,9.985,-0.004426141332,0.005616570409,-0.025305997274,0,8,294.20083470000003,3,3,16,15.0,0.001,249.10436329113384,434.891,186.421023
A-5992,COc1ccc(N\N=C2/C(=O)C=Cc3ccccc23)c(c1)[N+]([O-])=O,-7.991102511,24,66.0,8.937999999999999,-0.004797083669,0.0047692449579999,-0.043574071491,0,8,310.20023960000003,3,4,19,19.0,0.0,256.17385292542514,455.468,193.076052
B-2719,ON(C(=O)c1ccccc1)c2cccc3ccccc23,-3.3065,20,54.0,0.677,-0.0001748909539999,-0.0004846402139999,-0.008099893913,0,3,250.1880234,1,2,10,13.0,0.0,221.80727194886643,377.91,167.495197
B-2718,ON(c1ccccc1)C(=O)c2cccc3ccccc23,-3.9433,20,54.0,4.646,-0.000168568313,-0.001411027463,-0.010843247903,0,5,250.1880234,1,2,9,13.0,0.0,222.1688577590231,371.879,167.666015
G-1086,Cc1c(F)c(F)c(COC(=O)C2C(C=C(Cl)C(F)(F)F)C2(C)C)c(F)c1F,-7.3210000000000015,26,75.0,5.937,-0.000674921756,0.016211874686,-0.015084881715,0,28,404.6230798,0,2,16,13.0,0.0,296.74350552270755,541.024,198.635627
B-3251,Cc1c(F)c(F)c(COC(=O)C2C(\C=C(/Cl)C(F)(F)F)C2(C)C)c(F)c1F,-7.3209,26,75.0,5.947,-0.000675269327,0.016206020752,-0.0151004412079999,0,28,404.6230798,0,2,16,13.0,0.0,296.7469362484745,541.126,198.634682
C-1051,CC1=CC=C(C=C1)C2=CC(=N[N]2C3=CC=C(C=C3)[S](N)(=O)=O)C(F)(F)F,-4.74,25,72.0,17.222,-0.01038495456,0.012080726653,-0.061078278895,0,16,367.2614267,2,2,11,14.0,0.0,288.97038238773183,485.712,210.649329
C-2573,N[S](=O)(=O)C1=CC=C(NC2=CC=NC(=N2)N[S](=O)(=O)C3=CC(=CC=C3)C(F)(F)F)C=C1,-1.82,31,87.0,18.311,-0.017066272842,0.0191732596219999,-0.064243034804,0,22,459.3384303,5,4,21,18.0,0.0,339.19136517155226,567.6619999999999,254.958692
A-2063,CC(C)(c1ccc(OC#N)cc1)c2ccc(OC#N)cc2,-5.469558377999999,21,57.0,3.236,-0.000122614407,-0.005652975897,-0.017344400855,0,6,264.1947266,2,2,12,13.0,0.0,251.2690101979762,444.586,175.11603
A-2317,COc1ccccc1N\N=C2/C(=O)C=Cc3ccccc23,-8.926016432,21,57.0,6.031000000000001,-0.001758270063,-0.002020660075,-0.022056374346,0,4,264.1947266,2,2,16,16.0,0.0,231.7781581586457,414.357,176.158179
A-4367,CC1=NN(C(=O)C1N=Nc2ccccc2C([O-])=O)c3ccc(cc3)[S]([O-])(=O)=O,-1.491314993,28,78.0,37.313,-0.017619672749,0.018167919043,-0.226463237732,0,16,388.2705401,4,6,14,16.0,0.0,302.1155477202601,502.734,233.636811
A-2231,C(Oc1ccc2ccccc2c1)c3ccccc3,-6.477673979,18,48.0,6.0,-4.4781528e-05,-0.0035556808899999,-0.010078150887,0,3,220.1819152,0,1,13,13.0,0.0,213.90485060307336,420.898,154.698073
F-1132,CS(=O)(=O)C1=CC=C(C2=C(C3=CC=CC=C3)C(=O)OC2)C=C1,-4.52,22,60.0,7.307,-0.010063432142,0.01387525481,-0.037037695006,0,8,300.2449174,0,4,15,15.0,0.0,261.4037098499856,415.694,191.604287
A-2487,CCN(CCC#N)c1ccc(cc1)N=Nc2c(Br)cc(cc2Br)[N+]([O-])=O,-4.381248689,24,72.0,12.986,-0.00579681097,0.001823663726,-0.052332643291,0,12,466.0218918000001,4,2,29,17.0,-0.001,309.2491102575832,594.0409999999999,239.50873
B-2961,COC(=O)C(C)N(C(=O)c1ccccc1)c2ccc(F)c(Cl)c2,-3.982,22,63.0,1.154,-0.000950580133,0.006208795865,-0.011450266919,0,13,320.638769,1,3,11,12.0,0.0,271.1080271054173,450.025,191.226684
B-3086,COC(=O)[C@@H](C)N(C(=O)c1ccccc1)c2ccc(F)c(Cl)c2,-4.3219,22,63.0,4.767,-0.001358269787,0.00617482111,-0.013858459446,0,11,320.638769,1,3,15,15.0,0.0,276.72139812248787,455.8080000000001,191.816324
A-5584,CC(=O)C(N=Nc1ccc(C)cc1[N+]([O-])=O)C(=O)Nc2ccc(Cl)cc2,-7.605298094,25,72.0,5.782,-0.0035114694569999,0.007365909279,-0.016720772963,0,11,359.6598804,4,4,28,21.0,-0.001,308.61470385566133,534.808,211.633883
A-5829,COc1ccccc1NC(=O)C(N=Nc2ccc(Cl)cc2[N+]([O-])=O)C(C)=O,-7.306378354,26,75.0,7.762,-0.005226849984,0.010378583377,-0.0470709939659999,0,11,375.6592853,4,5,27,20.0,0.0,306.5138074927431,532.868,220.025
C-2574,N[S](=O)(=O)C1=CC=C(NC2=CC=NC(=N2)NC(=O)N[S](=O)(=O)C3=CC=C(Cl)C=C3)C=C1,-4.0,30,87.0,11.48,-0.015081796283,0.015798369827,-0.062632491166,0,17,467.8022666,6,5,24,21.0,0.0,362.9185456176128,538.52,272.150014
F-790,CCOC(=O)CC1=CC=C(C2=NC3=C(C=CC=C3)S2)C=C1,-4.36,20,57.0,22.539,-0.003286462956,0.002521134539,-0.037778861955,0,7,282.2528108,1,2,11,13.0,0.001,242.5503356241779,464.484,188.832071
C-1400,CC(C(O)=O)C1=CC=C(C=C1)N2CC3=C(C=CC=C3)C2=O,-4.72,21,57.0,7.249,-0.000980090966,0.004882988351,-0.004347266267,0,4,266.1874283,1,3,17,19.0,0.0,235.5776230391008,422.717,174.04411499999998
B-2115,CC(=O)Nc1ccc(OC(=O)c2ccccc2OC(C)=O)cc1,-4.1949,23,63.0,7.596,-0.001159646046,0.003663897173,-0.016757821427,0,9,298.1862381,1,5,17,13.0,0.001,256.5777477718128,455.225,182.223106
A-628,OC(=O)CC(C[P]1(=O)Oc2ccccc2c3ccccc13)C(O)=O,-2.8135095060000004,24,66.0,5.597,-0.004375357546,0.017507082722,-0.001949750981,0,9,331.1527018,0,6,23,18.0,0.0,264.2769920990926,480.658,203.50325
D-2011,CC(C)OC(=O)C(O)(c1ccc(Br)cc1)c2ccc(Br)cc2,-4.933,20,60.0,3.486,-0.001452498195,0.002070135759,-0.009632260163,0,11,411.9877806,0,3,14,17.0,0.0,284.4801960712332,523.53,203.60252
B-3305,CC(Oc1ccc(Oc2ncc(Cl)cc2Cl)cc1)C(=O)N3CCCO3,-4.5922,23,69.0,15.825,-0.002399880788,0.009175731787,-0.022947506342,0,13,367.09941160000005,2,4,15,16.0,0.0,295.7650718235067,531.279,213.281234
B-2009,OCCN(Cc1ccc(Oc2ccc(cc2)[N+]([O-])=O)cc1)C(=O)C(Cl)Cl,-5.1241,25,72.0,9.087,-0.0068768252859999,0.018377154564,-0.034334043706,0,13,383.0988165,2,5,14,18.0,-0.001,306.25895839994894,486.883,219.10767
A-267,CC\1=Nc2ccccc2C1=N/Nc3cc(Cl)c(cc3Cl)[S](=O)(=O)NCC[S]([O-])(=O)=O,-3.756179517,28,84.0,33.819,-0.0212135459189999,0.018784680402,-0.081405835542,0,24,475.2417977,4,5,14,14.0,0.001,348.2218404654513,596.26,278.193845
B-2191,CC(C)OC(=O)C(O)(c1ccc(Cl)cc1)c2ccc(Cl)cc2,-5.3544,20,60.0,5.09,-0.001416943071,0.005617316939,-0.0062020587479999,0,11,323.0866002,0,3,16,16.0,0.0,279.313206671577,504.254,189.897074
G-502,c1ccc(Cl)cc1C(c2ccc(Cl)cc2)(O)C(=O)OC(C)C,-4.53,21,60.0,6.87,-0.0027822992609999,0.0057546902209999,-0.019146560626,0,12,323.0866002,0,3,9,15.0,0.001,267.26800324184507,468.714,192.369978
A-2488,CCN(CCC#N)c1ccc(cc1)N=Nc2ccc(cc2Cl)[N+]([O-])=O,-4.252611554,24,69.0,6.172999999999999,-0.00438482961,0.00243983286,-0.044509555981,0,9,341.6677738,4,2,19,17.0,0.0,286.46665058104657,540.775,212.553075
D-1088,OCCN(CCC#N)c1ccc(cc1)N=Nc2ccc(cc2Cl)[N+]([O-])=O,-6.13,25,72.0,11.123,-0.006212590135,0.009429743624,-0.046724602489,0,9,357.6671787,4,3,25,20.0,0.0,292.08034469452275,564.155,216.069361
F-700,CN1CC2C3=C(C=CC=C3)OC3=C(C=C(Cl)C=C3)C2C1,-2.13,19,54.0,2.401,-6.9512711e-05,-0.002590012537,-0.004996440657,0,5,269.641556,1,1,11,13.0,0.0,226.1779160122304,408.306,178.42311
B-3111,CC(C)Oc1cccc(NC(=O)c2ccccc2C(F)(F)F)c1,-4.6947,23,63.0,3.954,-0.000268564434,0.000716699011,-0.020032558714,0,13,307.18323280000004,1,2,11,15.0,0.0,261.19294293890607,455.34,177.06493799999998
F-679,CC1=C(NS(=O)(=O)C2=CC=C(N)C=C2)C2=C(C=CC=C2)C=C1,-4.5,22,60.0,7.41,-0.004888019607,-0.000406639656,-0.039305649292,0,8,296.259514,2,2,14,16.0,0.0,254.5777796146856,435.274,196.182749
F-730,CC1=C(NC(=O)C(=O)C(=O)NC2=C(C)C=CC=C2)C=CC=C1,-2.2,22,60.0,3.819,-0.001318230243,0.0012475936229999,-0.009919646729,0,8,280.1941315,2,3,13,14.0,0.0,258.24496075234816,425.725,177.366149
C-969,CCCC1=C(N=C2C=C(O)C(=O)C3=C2C=CC=C3)C(=NO1)C,-3.7,22,60.0,7.361000000000001,-0.002725510477,0.007689609368,-0.015214338506,0,7,280.1941315,2,3,8,18.0,0.0,253.74626404444305,429.519,179.934369
C-2290,CC(=O)NC1=CC=C(C=C1)C(=O)NC2=CC=C(OC(C)=O)C=C2,-4.41,23,63.0,6.004,-0.003058160878,0.007977267364,-0.0182191644289999,0,8,296.1935364,2,4,19,20.0,0.0,258.3583571438069,496.362,177.93391
A-5875,CC(=O)C(N=Nc1ccc(C)cc1[N+]([O-])=O)C(=O)Nc2ccccc2,-7.417968366,25,69.0,7.502000000000001,-0.003941747367,0.0080308864879999,-0.023410529686,0,9,324.20694280000004,4,4,15,18.0,0.0,284.7752286894032,479.648,197.930211
A-2045,O=C(OCCc1ccccc1)/C=C/c2ccccc2,-5.401939627000001,19,51.0,2.732,-0.002261796575,0.0010603430409999,-0.0110428472889999,0,3,236.1813201,0,2,17,16.0,0.0,217.7223003546017,443.21,159.998286
A-91,C=CC(=O)OCCOc1ccccc1c2ccccc2,-3.951518842,20,54.0,24.736,-0.002840514364,0.001262261261,-0.07031720664,0,6,252.1807251,0,3,13,11.0,0.0,228.7862447675567,425.349,167.861084
F-838,CC1=CC(=O)OC2=C1C=C(C)C1=C2C2=C(CCCC2)O1,-5.09,20,54.0,7.073,-0.002384996735,0.004311433947,-0.014866519232,0,5,252.1807251,0,3,11,14.0,0.0,220.937998562916,370.179,162.183799
A-425,CC(COC(=O)c1ccccc1)OC(=O)c2ccccc2,-4.567302938,21,57.0,7.683,-0.002835452743,0.005171967463,-0.014029787095,0,7,268.18013,0,4,15,13.0,0.0,236.78118097398163,454.007,168.97196599999998
C-2156,CNC1CCC(C2=CC(=C(Cl)C=C2)Cl)C3=C1C=CC=C3,-5.23,18,54.0,1.124,-7.611480000000001e-07,-0.003042626443,-0.0073491637659999,0,8,289.0950887,1,0,8,12.0,0.0,241.832630562918,412.366,188.08218
F-1083,CC1C(N)CN1C1=C(Cl)C2=C(C=C1F)C(=O)C(C(=O)O)=CN2C1CC1,-4.48,25,69.0,15.701,-0.006013720533,0.009901874965,-0.092586775776,0,13,348.6521754,3,3,19,19.0,-0.001,273.4597476568272,474.494,205.429118
C-958,CC(C)=C1OC(=O)N(C1=O)C2=C(F)C=C(Cl)C(=C2)OC3CCCC3,-6.21,23,66.0,3.349,-0.002770154918,0.010089779851,-0.012351820573,0,15,336.6381739,1,4,11,15.0,0.0,273.5267760948153,462.746,194.06896
C-894,COC1=CC(=C2C(=O)C3(OC2=C1Cl)C(C)CC(=O)C=C3OC)OC,-3.97,23,66.0,16.442,-0.005243368431,0.006204539438,-0.067866714841,0,14,335.63187739999995,0,6,18,16.0,0.0,267.797914826128,480.354,196.357238
F-1186,COC1=CC(=O)C2(OC3=C(C2=O)C(OC)=CC(OC)=C3Cl)C(C)C1,-4.4,23,66.0,10.759,-0.003238028431,0.004232927276,-0.075441756979,0,13,335.63187739999995,0,6,17,16.0,0.0,272.80692359645263,490.361,198.941787
F-564,CC(C)=NNC(=O)NC1C2=C(C=CC=C2)OC2=C1C=CC=C2,-4.17,22,60.0,9.716,-0.002375472739,-0.001619803567,-0.025155494349,0,6,278.2014298,3,2,16,16.0,0.0,249.7991950460496,448.631,182.943227