Name,SMILES,Solubility,AtomNum,DegFreedom,Dipole,Ghb,Gsasa,Gsolv,HNum,LP,MolWt,NNum,ONum,PiCenters,PiDeloc,Quadrupole,Volume,SASA,Polarizabilty
H-399,CCOC1=CC=C(NC(C)=O)C=C1,-2.3,13,33.0,2.815,-0.000229033718,0.000865765261,-0.003409849723,0,5,166.1128721,1,2,13,10.0,0.0,153.67526436168802,326.059,103.658516
B-2525,CC(C)OC(=O)c1ccc(N)cc1,-2.6099,13,33.0,4.829,-0.0003044587059999,-5.1099687000000006e-05,-0.011530693059,0,4,166.1128721,1,2,15,13.0,0.0,165.37460883053654,347.202,107.149525
A-4193,COc1ccc(C)cc1NC(C)=O,-1.931164755,13,33.0,7.284,-0.000810082149,-0.000720336925,-0.0245156174569999,0,6,166.112872,1,2,6,8.0,0.0,155.51964979154425,314.011,106.719767
C-1160,CNC(=O)OC1=CC(=C(C)C=C1)C,-2.49,13,33.0,1.308,-0.001386148761,0.001536254338,-0.006446127334,0,6,166.1128721,1,2,11,8.0,0.001,153.8361151302956,319.172,107.541942
B-4232,CNC(=O)Oc1cc(C)cc(C)c1,-2.5813,13,33.0,3.266,-0.001341983473,0.001626381167,-0.0078072832109999,0,6,166.1128721,1,2,11,10.0,0.0,155.13724153209617,330.19300000000004,107.138621
B-4195,CC(C)OC(=O)Nc1ccccc1,-3.0005,13,33.0,2.742,-0.000492759849,0.001855359105,-0.003357715,0,3,166.1128721,1,2,13,9.0,0.0,163.61967076744327,357.189,106.941938
B-1109,CN[C@@H](Cc1ccc(O)cc1)C(O)=O,-2.1325,14,36.0,3.074,-0.003185602332,0.00933124593,-0.008826281474,0,5,182.112277,1,3,17,12.0,0.0,162.72638918248538,341.43,108.407995
B-2615,CCOc1ccc(NC(=O)CO)cc1,-2.1058,14,36.0,1.984,-0.002846492195,0.010317877542,-0.006097001472,0,6,182.112277,1,3,13,11.0,0.0,158.9927198509205,342.807,108.901961
B-4531,CCC(C)c1ccc(O)c(c1)[N+]([O-])=O,-3.8403,14,36.0,7.997999999999999,-0.005546460105,0.0117026800499999,-0.027072447278,0,7,182.112277,1,3,12,10.0,0.0,164.16229345036845,342.05300000000005,109.429026
A-3549,COc1ccc(OC)c(NC(C)=O)c1,-1.591549855,14,36.0,8.465,-0.00029050967,-0.001119441775,-0.0248351655409999,0,5,182.112277,1,3,13,10.0,-0.001,167.97006879334373,313.806,112.349843
B-1172,C[C@](N)(Cc1ccc(O)c(O)c1)C(O)=O,-1.3247,15,39.0,5.329,-0.003062700741,0.015043125307,-0.005527594855,0,5,198.1116819,1,4,21,15.0,0.0,174.22439567218632,368.36800000000005,115.605904
F-586,CNC(CC1=CC(O)=C(O)C=C1)C(=O)O,-1.02,15,39.0,5.252999999999999,-0.003083400784,0.01493360143,-0.005064074562,0,5,198.1116819,1,4,20,15.0,0.0,168.76028082427794,381.175,117.779397
C-1841,COC(=O)C(N)CC1=CC(=C(O)C=C1)O,0.48,15,39.0,5.763,-0.0029945299579999,0.013887514864,-0.009700658991,0,6,198.1116819,1,4,18,12.0,0.0,171.61760232092743,403.196,116.793947
A-4642,CCOC(=O)N[S](=O)(=O)c1ccc(C)cc1,-2.243098748,16,42.0,20.288,-0.009635414986,0.010196723063,-0.065244449215,0,12,230.1764693,1,4,12,9.0,0.0,190.83521869113784,371.612,137.843077
A-1789,CC(=O)Nc1ccc(cc1)[S](=O)(=O)CCO,-2.306932302,16,42.0,1.237,-0.008980307905,0.016073881637,-0.022336187421,0,8,230.1764693,1,4,14,13.0,0.0,189.3190200689009,365.466,134.332717
C-1850,OCC1OC(C(O)C1O)N2C=CC(=O)CC2=O,-0.77,17,45.0,9.812,-0.0058133245739999,0.024508772694,-0.02625290947,0,10,230.1104917,1,6,16,11.0,0.001,171.71712334305303,355.134,121.488961
A-3636,Cc1ccc(OCCC[S]([O-])(=O)=O)c(c1)[N+]([O-])=O,0.170310359,18,48.0,9.096,-0.0185091198769999,0.022215620776,-0.100925417975,0,14,262.17527909999995,1,6,9,13.0,0.0,201.3496472955334,403.578,149.745126
B-3598,CC(C)(C)c1ccccc1,-3.658,10,24.0,0.442,-5.67993e-07,-0.0038373965629999,-0.006449153495,0,1,120.107359,0,0,8,10.0,0.0,135.37311601345277,267.587,88.32690699999999
B-3607,CCCCc1ccccc1,-4.0559,10,24.0,3.595,-7.44123e-07,-0.00408303539,-0.006483332351,0,0,120.107359,0,0,9,7.0,0.001,124.30106121342956,284.716,89.982969
A-1308,CCC(C)c1ccccc1,-3.758607848,10,24.0,4.248,-1.352878e-06,-0.003937291333,-0.006868827215,0,2,120.107359,0,0,5,6.0,0.0,126.89360252286544,274.553,89.494564
E-42,c1cc(CC)ccc1CC,-3.75,10,24.0,0.02,-1.254873e-06,-0.004071896222,-0.008445940199,0,0,120.107359,0,0,8,8.0,0.0,125.54641385495452,283.939,91.679335
B-3615,CCc1cccc(CC)c1,-3.7476,10,24.0,0.437,-9.47464e-07,-0.0040739684,-0.007063401798,0,0,120.107359,0,0,8,9.0,0.0,125.5708534166994,284.083,90.017641
B-3613,CCc1ccccc1CC,-3.2759,10,24.0,5.367999999999999,-1.034551e-06,-0.003916455876,-0.007728235218,0,2,120.107359,0,0,7,7.0,0.0,125.51781291799914,273.1,91.688324
H-178,C=CC=C(C)C=CC=CC,-2.09,10,24.0,3.494,-2.06079e-06,-0.004500530308,-0.011156228396,0,3,120.107359,0,0,2,9.0,0.0,134.84688808025308,313.828,91.846409
C-105,CC1=CC(=C(C)C=C1C)C,-3.84,10,24.0,0.0,-1e-12,-0.0036224912449999,-0.003210832074,0,0,120.107359,0,0,10,11.0,-0.001,143.04751838533164,252.601,90.001
B-1103,CC(C)c1cccc(C)c1,-3.4994,10,24.0,2.59,-1.456155e-06,-0.004012590163,-0.009184766361,0,3,120.107359,0,0,2,5.0,0.0,129.21124626445766,279.803,87.313383
E-43,c1cc(C)ccc1C(C)C,-3.77,10,24.0,7.729,-1.384333e-06,-0.003866841549,-0.011488555954,0,2,120.107359,0,0,6,8.0,0.0,133.15890599428465,269.64,89.372918
B-1080,CC(C)c1ccccc1C,-3.7606,10,24.0,5.605,-1.586947e-06,-0.003879604185,-0.01206466267,0,2,120.107359,0,0,3,7.0,0.001,130.3020363490379,270.53,88.087519
B-3619,CC(C)Cc1ccccc1,-4.1235,10,24.0,3.483,-6.797750000000001e-07,-0.004081643572,-0.006298485215,0,1,120.107359,0,0,8,9.0,0.0,133.28006219590029,284.619,89.93391899999999
B-3352,ClC(Cl)C(=O)N(CC=C)CC(=O)NCC=C,-1.0397,16,42.0,5.956,-0.001198570048,0.008937374609,-0.012160431714,0,11,251.0254504,2,2,12,7.0,-0.001,212.0521982732897,419.704,142.78839399999998
B-4201,CO[P](=S)(NC(C)C)Oc1ccc(Cl)cc1Cl,-4.7982,16,45.0,7.841,-0.000554180843,0.003539402745,-0.006655990517,0,14,300.05729660000003,1,2,8,7.0,0.001,242.80263985114672,458.0,178.01419199999998
C-406,ClC(Cl)(Cl)C(NC=O)N1CCN(CC1)C(NC=O)C(Cl)(Cl)Cl,-4.16,21,60.0,5.364,-0.001555554448,0.012200842927,-0.003533736167,0,21,420.8506072,4,2,20,11.0,0.001,295.8543473036463,489.639,211.084789
B-1726,CCN(CC)C(=O)CSc1ccc(Cl)nn1,-1.7156,15,42.0,8.742,-0.002517620856,0.001999734453,-0.026968091438,0,10,245.6445985,2,1,12,14.0,0.0,202.2404008176977,391.628,152.73601100000002
E-468,n(cccc1C(N(CC2)C)C2)c1,0.79,12,30.0,0.6940000000000001,-2.130957e-06,-0.005884861332,-0.007821702751,0,3,148.1207654,2,0,7,9.0,0.0,146.4475914638604,318.819,102.926164
B-40,CN1CCC[C@H]1c2cccnc2,0.7898,12,30.0,0.6920000000000001,-2.130153e-06,-0.005884849821,-0.007823107867,0,3,148.1207654,2,0,7,9.0,0.0,146.44625533424855,318.818,102.929104
B-1006,C1CC[C@H](NC1)c2cccnc2,0.7898,12,30.0,2.103,-1.498434e-06,-0.00561050332,-0.0065077788489999,0,2,148.1207654,2,0,5,9.0,0.0,137.12249430565467,284.762,101.861766
C-1146,CN(C)CNC(=O)C1=CC=CC=C1,0.42,13,33.0,10.276,-0.001501313405,0.001075085483,-0.017695671406,0,3,164.1201703,2,1,9,9.0,-0.001,162.24450379167118,322.773,107.814773
B-4151,CCNCNC(=O)c1ccccc1,-0.0749,13,33.0,10.259,-0.001501851367,0.001079008444,-0.017683276396,0,3,164.1201703,2,1,9,9.0,0.0,152.7617831924301,322.759,107.805443
B-2588,CCN(C(N)=O)c1ccccc1C,-0.2096,13,33.0,2.6630000000000003,-0.000843746903,0.0016874420319999,-0.0059540922479999,0,3,164.1201703,2,1,10,8.0,0.0,161.8706194672546,301.578,104.53567
B-80,CCN(CC)C(=O)c1cccnc1,0.7490000000000001,13,33.0,5.492999999999999,-0.0011576906949999,-0.000417965572,-0.013228852851,0,5,164.1201703,2,1,8,12.0,-0.001,154.39587145277974,326.701,109.598767
F-1115,CCN(C(N)=O)C1=CC=C(OC)C=C1,-1.27,14,36.0,13.941,-0.000380608358,-0.003388099588,-0.039645660024,0,5,180.1195753,2,2,11,11.0,0.0,163.72729548124056,330.246,114.968068
F-634,CCOC1=CC=C(N(C)C(N)=O)C=C1,-1.66,14,36.0,12.773,-0.000885776073,0.0050584612,-0.0286629105709999,0,4,180.1195753,2,2,14,12.0,0.001,171.17144181840638,331.266,108.142118
F-635,CCCCOC1=C(C=C(C=C1)[N+](=O)[O-])N,-3.82,15,39.0,6.093,-0.004245865863,0.004483304179,-0.049590703775,0,6,196.1189802,2,3,10,11.0,-0.001,170.51438527008582,396.128,120.135971
F-1020,C=CC1(CC(C)C)C(=O)NC(=O)NC1=O,-2.12,15,39.0,12.781,-0.005051391966,0.0110808457749999,-0.032355089378,0,5,196.1189802,2,3,12,13.0,0.001,191.17255751055515,366.573,118.252401
B-4597,CC(C)C1(CC=C)C(=O)NC(=O)NC1=O,-1.712,15,39.0,2.047,-0.001967714564,0.005112286088,-0.0083878984099999,0,6,196.1189802,2,3,14,10.0,0.0,187.56395992514413,374.332,120.882479
B-3331,CC=CCC1(C)C(=O)NC(=O)N(C)C1=O,-1.5445,15,39.0,3.083,-0.002840222403,0.009788131646,-0.007092145082,0,8,196.1189802,2,3,13,11.0,0.0,176.6209824336007,354.211,117.476528
C-144,CC(C)=CCC1(C)C(=O)NC(=O)NC1=O,-2.6,15,39.0,12.74,-0.005049436298,0.011100171274,-0.032288911675,0,5,196.1189802,2,3,12,11.0,-0.001,186.5001191710569,366.666,118.253268
C-1646,O=C1NC(=O)C2(CCCCCC2)C(=O)N1,-2.98,15,39.0,13.056,-0.004427932967,0.010014435163,-0.024621793006,0,4,196.1189802,2,3,20,14.0,0.0,159.0482582553451,314.188,114.613794
C-1299,CN(C)[S](=O)(=O)C1=CC=C(C=C1)N(C)C=O,-2.37,16,42.0,2.327,-0.003785007655,0.00590551657,-0.0131657418769999,0,8,228.1837676,2,3,13,10.0,0.0,201.98629013743127,364.793,140.56350600000002
A-3642,CC1=CN(C2CC(O)C(CO)O2)C(=O)NC1=O,-0.742062088,17,45.0,5.86,-0.004511920048,0.019917601765,-0.0100550495099999,0,8,228.11779,2,5,17,13.0,0.001,182.77205246625616,362.237,124.596252
C-2015,CCC[N]1C=NC2=C1C(=O)N(C)C(=O)N2C,0.02,16,42.0,2.028,-0.002064952386,0.0037947122249999,-0.015217142356,0,9,208.1329817,4,2,11,9.0,0.0,177.7764600000216,357.181,129.753376
B-3089,CCCN1C(=O)N(C)c2ncn(C)c2C1=O,-1.2082,16,42.0,2.422,-0.002140342572,0.0031595925349999,-0.0187870029,0,8,208.1329817,4,2,13,11.0,0.0,183.70501360434343,371.713,130.747095
B-2151,CCc1nc2N(C)C(=O)N(C)C(=O)c2n1C,-1.5687,16,42.0,1.957,-0.0026240531929999,0.005530111966,-0.01290285719,0,8,208.1329817,4,2,12,11.0,0.0,186.7493961525233,359.228,126.13995
B-2628,CN1C(=O)N(C)c2ncn(CCCO)c2C1=O,-0.1551,17,45.0,8.866,-0.003288748932,0.009875919028,-0.018711788567,0,9,224.1323866,4,3,13,12.0,0.0,196.37585370641892,353.85400000000004,130.559602
B-1311,CC(O)Cn1cnc2N(C)C(=O)N(C)C(=O)c12,0.623,17,45.0,3.0,-0.002654835943,0.008563747682,-0.010115630893,0,8,224.1323866,4,3,19,13.0,0.0,194.887107693282,353.39300000000003,130.51131
E-866,O=C(N(C(=O)C(N(C=N1)CC(O)CO)=C12)C)N2C,-0.17,18,48.0,5.247999999999999,-0.005166579225,0.015046921726,-0.0217094136139999,0,8,240.1317915,4,4,19,15.0,0.0,204.1506180027959,368.378,135.216691
A-3896,Nc1ncnc2n(cnc12)C3OC(CO[P](O)(O)=O)C(O)C3O,-1.995302619,23,63.0,15.595999999999998,-0.0268138613199999,0.016819932996,-0.062136300432,0,14,333.1104715,5,7,23,15.0,0.001,243.00499487997848,453.291,175.59276599999998
B-2552,CCc1nc2nc(N)nc(N)c2nc1CC,-3.2671,16,42.0,2.37,-7.803476e-06,-0.010450974097,-0.017908148147,0,3,204.1475783,6,0,12,16.0,-0.001,179.55419328400845,350.922,131.436746
H-569,CCOP(=S)(OCC)OC1=CC=C(C=C1)[N+](=O)[O-],-4.29,18,48.0,4.813,-0.00649041514,0.0128015015329999,-0.019883987129,0,11,277.1496362,1,5,13,10.0,0.001,218.1470018761904,416.878,165.81585
B-4204,CCO[P](=O)(OCC)Oc1ccc(cc1)[N+]([O-])=O,-2.0594,18,48.0,6.369,-0.0130379770919999,0.013617763444,-0.031662105445,0,12,261.0842537,1,6,13,9.0,0.0,204.14760065384127,399.239,149.55918799999998
A-4758,CC(C)(C)c1ccc(O)cc1,-2.3914008140000003,11,27.0,3.828,-0.001521461736,0.002385614088,-0.0066156768319999,0,4,136.1067639,0,1,10,8.0,-0.001,138.9197039887253,281.318,91.494721
B-1238,CC(C)(C)c1cccc(O)c1,-1.8614,11,27.0,5.359,-0.003133285041,0.002533247045,-0.020575178977,0,4,136.1067639,0,1,6,7.0,0.0,142.75436305578785,284.093,89.514179
A-4707,CC(C)(C)c1ccccc1O,-2.189958914,11,27.0,3.861,-2.7853304e-05,-0.0017357603699999,-0.0030651234669999,0,3,136.1067639,0,1,7,6.0,0.0,142.90136083731142,262.759,93.835485
A-950,CCCCOc1ccccc1,-3.613249563,11,27.0,3.048,-1.8815539e-05,-0.002023099193,-0.00496584402,0,1,136.1067639,0,1,11,10.0,0.0,133.2974207199663,299.392,95.225032
B-432,CCC(C)c1ccc(O)cc1,-2.1945,11,27.0,1.965,-0.001435440091,0.002195713199,-0.007066750286,0,3,136.1067639,0,1,10,8.0,0.0,133.35085286980572,293.61400000000003,96.324583
A-4631,CCC(C)c1ccccc1O,-2.012377793,11,27.0,5.35,-0.000913371376,0.001946566299,-0.0082069693819999,0,2,136.1067639,0,1,3,11.0,0.0,117.41229700652822,334.662,96.221011
A-1400,CC(C)c1ccc(O)cc1C,-2.854511354,11,27.0,3.619,-0.001367713563,0.002422442602,-0.006226528107,0,5,136.1067639,0,1,7,8.0,0.0,138.14821847180318,274.884,91.33453
B-429,CC(=C)C1CC=C(C)C(=O)C1,-2.0628,11,27.0,7.387,-0.002419987009,0.0022602413089999,-0.0208467072429999,0,4,136.1067639,0,1,5,8.0,-0.001,140.70026257037014,285.332,93.027675
A-1517,CC(=C)[C@H]1CC=C(C)C(=O)C1,-1.90265366,11,27.0,7.377000000000001,-0.002412441399,0.002258664336,-0.020787116074,0,4,136.1067639,0,1,5,6.0,0.001,140.7080773026027,285.34,93.032078
B-2245,CC(=C)[C@@H]1CC=C(C)C(=O)C1,-2.0608,11,27.0,7.379,-0.002416318901,0.002260014138,-0.020820103012,0,4,136.1067639,0,1,5,7.0,0.0,140.7086369129779,285.345,93.029494
B-1018,CC(C)c1ccc(C)c(O)c1,-2.0798,11,27.0,7.398,-0.002415940175,0.002259319831,-0.020833724857,0,4,136.1067639,0,1,5,10.0,0.001,140.70367752744949,285.341,93.029777
A-647,CC1=C(C=O)C(C)(C)CC=C1,-2.465007757,11,27.0,3.663,-0.0001222662,0.002194825413,-0.007431876749,0,3,136.1067639,0,1,7,6.0,0.0,142.93630616549288,283.44,95.261195
F-595,CC1(C)C(=O)C(=O)C2CCC1C2,-1.52,12,30.0,2.274,-0.001670990071,0.0070513187919999,-0.0077030635599999,0,6,152.1061688,0,2,10,9.0,0.0,145.64474622442728,288.321,89.80152700000001
B-415,CC(C)(C)c1ccc(O)c(O)c1,-1.9197,12,30.0,6.247999999999999,-0.001775453484,0.008792896189,-0.008994306669,0,3,152.1061688,0,2,12,11.0,0.001,145.7731046894084,326.217,96.495804
A-2504,CC(C)(C)c1cc(O)ccc1O,-1.220683278,12,30.0,0.969,-0.003539203032,0.008011287772,-0.01270358033,0,5,152.1061688,0,2,10,9.0,0.001,149.57438291065017,294.098,95.532086
A-3881,COC(Cc1ccccc1)OC,-1.629618671,12,30.0,10.297,-0.000108810732,-0.002912036693,-0.0294293383839999,0,3,152.1061688,0,2,10,8.0,0.0,148.98958584004498,338.048,101.696303
A-381,CC(=O)OC1(CCCCC1)C#C,-2.352215179,12,30.0,0.8029999999999999,-0.0002362974069999,0.0018620142869999,0.000646916456,0,4,152.1061688,0,2,9,7.0,0.0,154.45036049143502,270.562,99.125221
A-475,CCOc1ccccc1OCC,-2.41045076,12,30.0,7.655,-1.152347e-05,-0.002050177143,-0.010673721214,0,4,152.1061688,0,2,8,9.0,0.0,143.49027444591576,302.856,102.096735
A-4679,CCCc1ccc(O)c(OC)c1,-2.179290593,12,30.0,7.474,-0.001951916211,0.001105862681,-0.0262097276739999,0,4,152.1061688,0,2,8,7.0,0.0,143.9996756163966,305.536,101.085096
B-2984,CCCCSc1cc(O)cc(O)c1,-2.5191,13,33.0,11.464,-0.0062971500639999,0.011049919627,-0.044634532913,0,6,184.1709563,0,2,10,8.0,0.0,158.6075235920239,345.977,115.671708
B-84,Cc1ccccc1OCC(O)CO,-1.1887,13,33.0,1.124,-0.002153913293,0.0104864393919999,-0.000265234573,0,6,168.1055738,0,3,9,8.0,0.0,151.92634620608726,303.26,100.938745
F-597,CC12CCC(CC1=O)C2(C)C(=O)O,-1.78,13,33.0,3.175,-0.001376011443,0.011293325261,0.003172973428,0,5,168.1055738,0,3,14,10.0,0.001,159.03816097647248,306.84,96.241002
A-3805,OCCOCCOc1ccccc1,-0.716525615,13,33.0,1.296,-0.001272417438,0.006703750614,-0.004946772662,0,3,168.1055738,0,3,16,12.0,0.001,148.15003242110834,330.54400000000004,104.132871
F-351,COC1=C(OCC(O)CO)C=CC=C1,-0.73,14,36.0,11.923,-0.003412080898,0.007399745482,-0.03757390716,0,6,184.1049787,0,4,12,11.0,0.0,158.03741300919444,320.285,109.873418
A-1850,CC(=C)C(=O)OCCOC(=O)C(C)=C,-2.261313265,14,36.0,0.623,-0.003834233841,0.009213554657,-0.009994642446,0,8,184.1049787,0,4,14,12.0,0.0,169.5355092476292,365.32,108.498421
F-352,OCCOC1=CC=CC(OCCO)=C1,-1.02,14,36.0,2.904,-0.002748186188,0.013415176299,-0.004536877673,0,4,184.1049787,0,4,16,12.0,0.0,155.42166562293522,336.29400000000004,108.034132
F-840,OCCOC1=CC=C(OCCO)C=C1,-1.23,14,36.0,0.049,-0.0029644642699999,0.012996933851,-0.007094815462,0,4,184.1049787,0,4,12,13.0,0.0,155.71782493584757,347.529,105.896796
F-831,O=C(O)CC(O)CCC1=CCCC1=O,-0.4,14,36.0,16.932000000000002,-0.006272077649,0.019023003422,-0.03695990397,0,7,184.1049787,0,4,12,12.0,0.0,160.27929690943242,364.362,108.066503
A-4257,CC(=O)CC(=O)OCCOC(=O)C(C)=C,-1.063682205,15,39.0,3.629,-0.004064033052,0.013123240831,-0.009817159702,0,9,200.1043836,0,5,15,13.0,0.001,175.7524703177943,380.949,114.350374
A-4082,CC(=O)CC(=O)OCCOC(=O)CC(C)=O,-0.0337559,16,42.0,3.23,-0.005096249876,0.019503351158,-0.008112461126,0,9,216.1037885,0,6,16,15.0,0.0,182.1261607273729,394.887,118.995736
A-3621,CC(=C)C(=O)OCCOC(=O)CCC(O)=O,-0.706708916,16,42.0,17.164,-0.00719524042,0.021088074652,-0.026881868738,0,11,216.1037885,0,6,18,10.0,0.0,180.35745968890967,402.411,118.409555
F-1151,CC1=C(C(=O)O)C=C(C(O)C(O)C(O)CO)O1,-1.28,17,45.0,5.515,-0.004861229712,0.025712275277,-0.0058835960419999,0,12,232.1031934,0,7,11,10.0,0.0,179.25716401075138,347.266,121.91406
F-238,CC(=O)OC(OC(C)=O)C(OC(C)=O)OC(C)=O,-2.1,18,48.0,3.639,-0.001890897865,0.010036709825,-0.0137036330869999,0,12,248.1025984,0,8,14,13.0,0.0,201.7892340714737,385.267,128.003172
B-3674,CCN(CC)c1ccccc1,-3.0278,11,27.0,4.343999999999999,-2.184139e-06,-0.004259543887,-0.011534840557,0,2,134.1140622,1,0,8,7.0,0.0,136.5273814645773,293.164,98.512173
B-1225,CCc1cccc(CC)c1N,-2.3478,11,27.0,6.421,-4.289437e-06,-0.005483414007,-0.01416953854,0,3,134.1140622,1,0,9,7.0,0.0,136.27352786214664,293.719,97.882328
A-986,CC1=CCC(CC#N)C1(C)C,-2.647537233,11,27.0,1.391,-5.229702999999999e-06,-0.006665240394,-0.018135450597,0,3,134.1140622,1,0,12,8.0,-0.001,144.53632949323463,330.095,98.076918
B-4152,CNCC(C)c1ccccc1,-1.0947,11,27.0,2.8680000000000003,-1.316458e-06,-0.0047320272779999,-0.010042261099,0,1,134.1140622,1,0,10,7.0,-0.001,143.1663353242982,305.116,97.082701
F-1012,NC1=NC2=C(C=N1)N=CN2CCC(CO)CO,-0.3,17,45.0,30.834,-3.89679e-05,0.002630769524,-0.091103033641,0,7,222.1396849,5,2,18,11.0,0.0,187.74095406378652,398.799,133.31006200000002
B-358,CCN(CCO)c1ccccc1,-1.9171,12,30.0,3.0580000000000003,-0.001014247021,0.0023196925909999,-0.008832359887,0,2,150.11346709999998,1,1,11,12.0,0.0,142.16696226805146,304.12,102.283867
A-4606,CCN(CC)c1cccc(O)c1,-2.011278797,12,30.0,3.264,-0.002326907926,0.002027850878,-0.019823308522,0,4,150.11346709999998,1,1,8,11.0,0.0,144.13579157939458,309.731,101.009056
E-530,OC(c(cccc1)c1)C(NC)C,-0.42,12,30.0,6.04,-0.001091888817,0.000933096525,-0.007359034281,0,4,150.11346709999998,1,1,8,10.0,0.0,144.39940730719132,289.831,101.611722
A-3399,CN[C@@H](C)[C@@H](O)c1ccccc1,-1.405191317,12,30.0,6.04,-0.001092184175,0.0009307386629999,-0.00736756703,0,4,150.11346709999998,1,1,8,10.0,0.0,144.4028480951932,289.829,101.611037
B-4494,CN[C@@H](C)[C@H](O)c1ccccc1,-0.4147,12,30.0,6.042999999999999,-0.00109278446,0.000930746872,-0.007374143569,0,4,150.11346709999998,1,1,8,9.0,0.0,144.39929480615103,289.828,101.611147
A-3702,CC1(C)CC(=O)CC(C)(C1)C#N,-1.54049772,12,30.0,4.354,-0.0022648293609999,4.7906651e-05,-0.019522003284,0,4,150.11346709999998,1,1,9,6.0,0.0,161.89213149416176,301.892,99.512593
A-32,CCNCC(O)c1cccc(O)c1,-3.45410264,13,33.0,2.471,-0.0036305663059999,0.0071480755039999,-0.018785052841,0,5,166.1128721,1,2,11,6.0,0.0,149.12369953211032,329.607,105.570145
A-3599,OCCN(CCO)c1ccccc1,-0.583380931,13,33.0,6.297999999999999,-0.00249464143,0.008946321802,-0.009333702389,0,2,166.1128721,1,2,14,10.0,0.0,149.32134454690737,314.086,103.944065
A-4807,CCCCN[S](=O)(=O)c1ccccc1,-2.675782414,14,36.0,9.511,-0.008171015726,0.006611069694,-0.034630298143,0,7,198.1776595,1,2,9,9.0,0.0,169.50538680193242,347.767,126.658591
B-3474,COc1ccc(NCC(O)CO)cc1,-0.295,14,36.0,11.889,-0.005150199063,0.007712717957,-0.038219762677,0,5,182.112277,1,3,13,10.0,0.001,156.8201682131815,353.17800000000005,112.371465
B-3505,N[S](=O)(=O)c1ccc(CCCCO)cc1,-1.1931,15,39.0,11.484000000000002,-0.011432112163,0.0128886566959999,-0.040788762845,0,6,214.1770644,1,3,13,12.0,0.0,178.61327724156638,373.282,127.863842
B-3503,N[S](=O)(=O)c1ccc(SCCCCO)cc1,-2.5141,16,42.0,6.547000000000001,-0.010353908427,0.014748879321,-0.028170304897,0,9,246.2418518,1,3,12,12.0,0.0,199.3149442656141,393.273,150.264918
B-4174,CO[P](=S)(OC)Oc1ccc(SC)c(C)c1,-4.5695,15,42.0,6.104,-0.001121914051,0.005114399261,-0.00516983772,0,11,263.2089106,0,3,19,12.0,-0.001,231.23140755602665,443.108,170.529282
A-503,CC/C=C/CC/C=C/C=C,-3.34190657,10,24.0,0.035,-2.239063e-06,-0.0046085661829999,-0.012448565053,0,2,120.107359,0,0,0,9.0,0.0,131.58214420047787,321.362,92.455886