Name,SMILES,Solubility,AtomNum,DegFreedom,Dipole,Ghb,Gsasa,Gsolv,HNum,LP,MolWt,NNum,ONum,PiCenters,PiDeloc,Quadrupole,Volume,SASA,Polarizabilty
F-36,C1=CC2=C(C=C1)C1=C(C=NC=C1)N2,-3.73,13,33.0,3.155,-1.832095e-06,-0.005718039974,-0.008167503975,0,1,160.1315013,2,0,8,10.0,0.0,140.83304214224148,283.55400000000003,111.097538
B-2040,[nH]1c2ccccc2nc1c3occc3,-3.414,14,36.0,4.1930000000000005,-0.000176650436,-0.002749427633,-0.005985892755,0,4,176.1309062,2,1,10,9.0,0.0,152.63488045514092,311.946,113.89598
F-6,C1=CC=C(C2=NC3N=CN=CC3=N2)C=C1,-3.07,15,39.0,0.6829999999999999,-5.038461e-06,-0.007685490115,-0.010973138957,0,2,188.1449077,4,0,12,9.0,0.0,161.87034466298292,322.071,123.430307
C-2052,[NH]1C2=C(N=CN=C2)N=C1C3=CC=CC=C3,-3.06,15,39.0,0.682,-5.021008e-06,-0.007683026112,-0.010953605339,0,2,188.1449077,4,0,12,13.0,0.0,161.87460462059366,322.07,123.443979
C-1873,CC(=O)C1=CC=C(NN=C(C#N)C#N)C=C1,-2.71,16,42.0,2.43,-0.001110655224,-0.003693388448,-0.01748101018,0,3,204.1443127,4,1,17,12.0,0.0,192.15634036082284,394.045,125.771833
B-4132,CC1=CC(=O)c2ccccc2C1=O,-3.0319,13,33.0,6.277,-0.001842958624,0.007627996257,-0.0067924269739999,0,4,164.1169047,0,2,10,10.0,0.0,149.89263362132314,300.521,108.491983
B-3766,OC(=O)c1ccc2ccccc2c1,-3.5639,13,33.0,19.342,-0.007820253425,0.007635198031,-0.07420408344,0,4,164.1169047,0,2,10,9.0,0.0,149.01349013862503,304.3,107.138846
B-3762,OC(=O)c1cccc2ccccc12,-3.3015,13,33.0,0.248,-0.001163385343,0.005877800685,0.002797183712,0,2,164.1169047,0,2,16,12.0,0.0,152.5834252158023,318.342,109.07698700000002
A-1343,Oc1ccc2ccccc2c1C=O,-3.89356759,13,33.0,5.527,-0.002475303543,0.007801787094,-0.007867699618,0,3,164.1169047,0,2,9,10.0,0.0,141.907666851495,291.336,107.618972
B-2671,CSC1=CC(=O)c2ccccc2C1=O,-4.4651,14,36.0,1.649,-0.002692060108,0.007559919532,-0.008648214506,0,6,196.1816921,0,2,9,12.0,0.0,165.12065889666326,326.086,128.558574
A-5183,OC(=O)c1ccc2cc(O)ccc2c1,-3.278942885,14,36.0,5.66,-0.0037041587319999,0.012367498916,-0.004982489433,0,4,180.1163097,0,3,16,14.0,0.0,162.35892507636962,333.718,112.922375
A-389,OC(=O)c1cc2ccccc2cc1O,-3.417245584,14,36.0,6.4270000000000005,-0.002586188219,0.008526450142,-0.007980136015,0,4,180.1163097,0,3,16,13.0,-0.001,163.32029167801244,324.769,112.896536
B-1842,OC(=O)c1c(O)ccc2ccccc12,-3.1284,14,36.0,6.284,-0.003086868903,0.010945414982,-0.006659132663,0,5,180.1163097,0,3,10,13.0,-0.001,149.93084838224863,299.907,110.000831
C-435,ClCC#CCOC(=O)NC1=CC(=CC=C1)Cl,-4.24,16,42.0,5.442,-0.001038324019,0.0038985548799999,-0.005841961134,0,8,249.0294831,1,2,16,9.0,0.0,200.7354184120373,426.055,144.507308
B-3434,OC(=O)C1CC1C(=O)Nc2ccc(Cl)cc2Cl,-3.8697,16,45.0,26.378,-0.008409310747,0.0124106190149999,-0.105067086205,0,12,265.028888,1,3,17,13.0,0.0,195.6111325218032,387.134,148.79126200000002
C-808,ClC1=CC=CN=C1N[S](=O)(=O)C2=CC=CC=C2,-3.17,17,45.0,4.501,-0.00620078784,0.003216987197,-0.02031766029,0,11,259.6480361,2,2,9,10.0,0.0,199.9782465385256,374.548,156.766472
C-805,ClC1=NC=CC=C1N[S](=O)(=O)C2=CC=CC=C2,-3.76,17,45.0,5.881,-0.007307173409,0.005372845733,-0.02037431616,0,10,259.6480361,2,2,9,9.0,0.0,200.02929334606807,374.51,156.733432
C-2070,CC1=C(CC(O)=O)SC2=C1C=CC(=C2)Cl,-3.84,15,39.0,6.197,-0.002328126504,0.010039468634,-0.003160418562,0,9,231.6346297,0,2,9,10.0,0.0,181.7058252123512,364.35,142.621903
F-1118,O=C1NC(=O)N(CC2=CC=CC=C2)C=C1F,-2.65,16,42.0,10.457,-0.002574856855,0.007388056833,-0.017271099309,0,6,211.1287143,2,2,14,12.0,0.0,177.16671766302932,351.32199999999995,124.198638
C-2503,CC(=O)NC1=C(I)C(=C(I)C(=C1I)C(O)=O)NC(C)=O,-2.01,18,54.0,8.014,-0.0030581288069999,0.002003057494,-0.034635098015,0,19,604.8425367000001,2,4,14,11.0,0.0,275.2738926961725,456.216,229.111034
B-2380,O=C(Nc1ccccn1)c2cccnc2,-2.9771,15,39.0,1.715,-0.000136174681,-0.005005029206,-0.00767757317,0,5,190.1376095,3,1,9,10.0,0.0,168.2328395673306,322.135,120.924244
A-5405,O=C1NC(=CC=N1)NC(=O)c2ccccc2,-5.159680215,16,42.0,11.550999999999998,-0.003231328567,0.00586333503,-0.019702900366,0,6,206.1370144,3,2,12,13.0,0.0,174.56451895561378,335.142,126.45904
F-868,O=C1NC(NC2=CC=CC=C2)=NC2=C1N=CN2,-4.12,17,45.0,1.595,-0.001540572863,-0.003704859446,-0.015600042519,0,6,218.1510159,5,1,12,12.0,0.0,180.99633979153992,327.03700000000003,131.69511599999998
F-59,CC1(C)OC(=O)C2=C1C=CC(C#N)=C2,-2.91,14,36.0,2.157,-0.001721295297,0.002007336974,-0.012456956524,0,5,178.12360800000002,1,2,11,12.0,0.0,163.9519302062923,329.273,115.025387
F-319,CC1=C(C2=CC=CC=C2C=C1)[N+](=O)[O-],-4.27,14,36.0,8.892999999999999,-0.004205959572,0.005843870869,-0.020979982825,0,5,178.12360790000002,1,2,10,10.0,0.001,155.17336653305142,299.907,114.384975
F-277,COC1=CC=C(C2=CC=CC=C21)[N+](=O)[O-],-4.36,15,39.0,12.845,-0.005504614161,0.006188332564,-0.0459283315859999,0,5,194.1230129,1,3,12,10.0,0.001,162.20358423122283,323.559,121.00854
B-2320,ON(C(=O)c1occc1)c2ccccc2,-3.194,15,39.0,7.184,-0.002720996445,0.004744042295,-0.016893984826,0,6,194.1230129,1,3,10,10.0,0.0,164.61665864602404,321.618,118.234395
F-383,COC1=C(OC)C2=C(COC2=O)C(C#N)=C1,-3.48,16,42.0,13.989,-0.003099377975,0.001579440072,-0.060291920265,0,7,210.1224178,1,4,15,9.0,0.0,173.89959826934273,354.61300000000006,126.18672
A-4831,CCOC(=O)N1C(=O)c2ccccc2C1=O,-2.738772633,16,42.0,9.499,-0.003327903697,0.008929321106,-0.017274705414,0,8,210.1224178,1,4,13,9.0,0.0,169.55135780582782,343.38800000000003,125.00252
B-3463,N[S](=O)(=O)c1scc(c1)C(=O)c2ccc(O)cc2,-2.8612,18,48.0,1.725,-0.0108557050169999,0.019070671509,-0.0249263781389999,0,11,274.25199260000005,1,4,11,12.0,-0.001,219.3903093789748,379.017,161.570126
A-6101,Brc1c(Br)c(Br)c(Oc2c(Br)c(Br)c(Br)c(Br)c2Br)c(Br)c1Br,-9.98189604,17,63.0,0.407,-0.000185466813,-0.005910838036,-0.0146377306679999,0,32,959.1635135,0,1,0,6.0,0.0,351.99748180370835,578.247,326.798697
G-117,Clc1c(Cl)c(Cl)c(c(Cl)c1Cl)c2c(Cl)c(Cl)c(Cl)c(Cl)c2Cl ,-11.6,17,60.0,0.0,-1.0299200000000001e-07,0.005953031999,-0.004342874267,0,30,498.6582066000001,0,0,0,6.0,0.0,317.2247669038531,515.1469999999999,255.321091
H-94,ClC1=C(Cl)C(Cl)=C(OC2=C(Cl)C(Cl)=C(Cl)C(Cl)=C2Cl)C(Cl)=C1Cl,-12.95,17,63.0,0.0069999999999999,-8.036038e-06,0.005994420007,-0.003859754755,0,32,514.6576115,0,1,0,6.0,0.0,326.2501276285264,527.011,260.352801
B-2857,Clc1c(Cl)c(Cl)c2c(oc3c(Cl)c(Cl)c(Cl)c(Cl)c23)c1Cl,-11.5827,17,57.0,0.494,-3.2699398e-05,0.005274840816,-0.005968756404,0,25,443.7517364,0,1,1,7.0,0.0,282.5185894399565,474.405,229.834524
B-4424,Clc1c(Cl)c(Cl)c2Oc3c(Cl)c(Cl)c(Cl)c(Cl)c3Oc2c1Cl,-12.0605,18,60.0,0.0,-6.762685499999999e-05,0.005576432865,-0.005275202178,0,28,459.7511413,0,2,0,6.0,0.0,291.4797402945293,493.842,234.991001
C-376,C1=CC=C(C=C1)C2=CC=CC=C2,-4.32,12,30.0,0.0,-2.76434e-07,-0.004170878976,-0.004450982121,0,0,144.12883080000003,0,0,8,10.0,-0.001,140.90791024640654,290.841,105.514522
E-63,c1ccc2cccc3c2c1CC3,-4.63,12,30.0,0.296,-2.2819800000000002e-07,-0.0038527967109999,-0.003835156092,0,0,144.12883080000003,0,0,10,10.0,0.0,133.1754292195007,268.661,106.133401
C-2431,NC1=CC=C(C=C1)[S](=O)(=O)NC2=CC=C(C=C2Br)[N+]([O-])=O,-4.78,20,57.0,2.583,-0.011062393168,0.013937496041,-0.037342177337,0,15,362.1148753,2,4,15,14.0,0.0,245.4737053423886,434.593,187.11239
C-1292,FC(F)(F)C1=CC=CC(=C1)N2CC(CCl)C(Cl)C2=O,-4.05,17,51.0,17.585,-0.000501519475,0.007734355963,-0.021412100245,0,18,302.0360236,1,1,6,9.0,0.0,216.7909549885177,413.65,156.394244
B-4298,Nc1ccc(cc1Cl)c2ccc(N)c(Cl)c2,-4.912,15,42.0,0.012,-1.1030583e-05,-0.006085391908,-0.018256312288,0,8,243.0481124,2,0,14,10.0,0.0,179.45410608569895,450.369,150.801376
C-922,NC1=CC=C(C=C1)[S](=O)(=O)NC2=CC=CC(=C2Cl)Cl,-4.73,18,51.0,2.7110000000000003,-0.0040552830959999,0.002629618271,-0.032664386393,0,14,307.11170960000004,2,2,8,10.0,-0.001,220.35487070769284,429.394,180.851856
C-2307,NC1=CC=C(C=C1)[S](=O)(=O)NC2=CC=C(Cl)C(=C2)Cl,-4.94,18,51.0,7.397,-0.006602083919,0.004101435513,-0.0302195275089999,0,14,307.11170960000004,2,2,11,10.0,0.0,218.5850977917089,445.576,179.478617
C-920,NC1=CC=C(C(=C1)Cl)[S](=O)(=O)NC2=CC=C(Cl)C=C2,-4.59,18,51.0,10.87,-0.0067082440379999,0.0052682321939999,-0.026481551324,0,13,307.11170960000004,2,2,11,10.0,0.0,236.3575995813609,399.775,177.480219
C-921,NC1=CC=C(C=C1)[S](=O)(=O)NC2=CC(=CC=C2Cl)Cl,-4.4,18,51.0,5.367999999999999,-0.007248466557,0.006581611176,-0.021004278158,0,13,307.11170960000004,2,2,9,8.0,0.0,238.94569509098656,394.904,177.472957
C-929,NC1=CC(=C(C=C1)[S](=O)(=O)NC2=CC=CC=C2Cl)Cl,-5.11,18,51.0,2.402,-0.006109862549,0.004712969446,-0.0209571867199999,0,12,307.11170960000004,2,2,11,11.0,0.0,233.4571632645672,389.511,178.83757
B-785,Nc1ccc(cc1)c2ccc(Cl)cc2,-4.6383,13,36.0,10.709,-8.395917e-06,-0.004792484948,-0.016366709242,0,4,193.5884716,1,0,6,8.0,0.0,169.95008994671483,344.398,128.336442
B-3135,Clc1cc(NC(=O)Nc2ccccc2)ccn1,-3.8028,17,45.0,3.329,-8.064462400000001e-05,-0.004105091433,-0.0058898774509999,0,5,237.6012829,3,1,12,11.0,0.001,202.067563630396,355.926,147.13486899999998
C-776,ClC1=CC=C(N[S](=O)(=O)C2=CC=CC=C2)C=C1,-4.03,17,45.0,4.517,-0.006915995264,0.005182449239,-0.019044459667,0,9,257.6520688,1,2,10,11.0,0.001,202.6433016404072,399.685,154.65286
C-790,ClC1=CC=CC=C1N[S](=O)(=O)C2=CC=CC=C2,-4.32,17,45.0,2.5860000000000003,-0.007333901236,0.006967868486,-0.021356038608,0,9,257.6520688,1,2,6,10.0,0.0,203.6799568013745,363.99,157.660581
B-4323,Nc1ccc(cc1)[S](=O)(=O)c2ccc(Cl)cc2,-4.1267,16,45.0,4.287,-0.00667903311,0.004237449494,-0.03192945941,0,8,257.6520688,1,2,11,13.0,0.0,186.6334315888075,400.61800000000005,159.123593
C-2208,OC(=O)CCC(=O)OCN1C(=O)OC2=CC=C(Cl)C=C12,-3.41,19,54.0,5.507999999999999,-0.00407173584,0.018346225346,-0.003042703712,0,13,289.5849011,1,6,15,13.0,0.0,216.00988205603483,406.621,157.042447
B-4154,c1ccc(cc1)N=Nc2ccccc2,-4.4544,14,36.0,0.001,-6.350690000000001e-07,-0.005685138017,-0.007785433307,0,0,172.1422372,2,0,11,12.0,0.0,162.4235056863993,334.983,119.787678
F-70,CC1=NC=CC2=C1NC1=C2C=CC=C1,-3.79,14,36.0,5.297000000000001,-2.279004e-06,-0.0058555225049999,-0.008623528509,0,3,172.1422372,2,0,9,11.0,0.0,154.8843740266298,305.288,121.209434
B-1716,O=C(Nc1ccccc1)c2cccnc2,-3.093,15,39.0,1.883,-0.000128448766,-0.00426408767,-0.006462667086,0,3,188.1416421,2,1,8,12.0,0.0,169.97550842546698,324.53700000000003,123.860377
B-1703,O=C1C=CC(C=C1)=NNc2ccccc2,-3.3429,15,39.0,2.863,-0.0017392967379999,0.00064800417,-0.019483021061,0,2,188.1416421,2,1,10,11.0,0.0,169.7701568228774,352.691,121.497076
F-1193,OC1=CC=C(N=NC2=CC=CC=C2)C=C1,-3.95,15,39.0,2.806,-0.001734925446,0.000648845058,-0.019563714029,0,2,188.1416421,2,1,11,12.0,-0.001,169.7743015794052,352.716,121.460842
B-4061,O=NN(c1ccccc1)c2ccccc2,-3.7531,15,39.0,3.689,-8.3415415e-05,-0.002215675558,-0.005185819229,0,2,188.1416421,2,1,10,12.0,0.0,172.8822133346692,304.446,123.91026
B-1796,OC/1=CC(=O)C=CC1=N/Nc2ccccc2,-3.0299,16,42.0,5.4,-0.003471298002,0.0062027517949999,-0.02417206231,0,3,204.1410471,2,2,14,12.0,-0.001,176.1322971357418,362.49,127.807248
F-1194,OC1=CC(O)=C(N=NC2=CC=CC=C2)C=C1,-3.08,16,42.0,5.209,-0.0034944812219999,0.006317565881,-0.023874015038,0,4,204.1410471,2,2,13,11.0,0.0,176.13136091872184,363.358,127.835659
C-854,[O-][N+](=O)C1=CC=C(N[S](=O)(=O)C2=CC=CC=C2)C=C1,-3.93,19,51.0,12.724,-0.011769202697,0.0150898795199999,-0.038466209747,0,11,268.2046443,2,4,13,12.0,0.0,209.50028762148304,414.192,157.17136599999998
C-882,[O-][N+](=O)C1=CC=CC=C1N[S](=O)(=O)C2=CC=CC=C2,-4.01,19,51.0,11.374,-0.0112660156159999,0.015504513729,-0.036127075921,0,8,268.2046443,2,4,15,15.0,0.0,210.1160905518321,370.045,161.195998
A-5996,CC1=CC2=NC(=O)N=C2C=C1NNC3C(=O)NC(=O)NC3=O,-6.489140234,22,60.0,16.648,-0.006096029987,0.012481715324,-0.047854604619,0,9,292.16666969999994,6,4,30,19.0,0.001,158.4859592681108,498.772,167.531404
E-390,c1ccccc1Oc2ccccc2,-3.96,13,33.0,0.946,-0.000132976736,-0.001444237501,-0.00220635083,0,1,160.12823569999998,0,1,7,10.0,0.0,151.06757801942013,286.438,111.540336
A-1206,CC(=O)c1ccc2ccccc2c1,-2.796418719,13,33.0,8.176,-0.002067024158,0.002300126045,-0.0126857625389999,0,1,160.12823569999998,0,1,11,9.0,0.0,162.0078256647176,313.009,111.908647
A-1328,CC(=O)c1cccc2ccccc12,-2.884634649,13,33.0,4.056,-0.001394227219,0.002384550034,-0.004620474382,0,1,160.12823569999998,0,1,9,14.0,0.0,158.76726496459577,305.766,111.944834
B-3694,Oc1ccc(cc1)c2ccccc2,-3.4812,13,33.0,5.165,-0.001854553295,0.002023203955,-0.009793608284,0,2,160.12823569999998,0,1,8,9.0,0.0,148.7504639195844,307.217,110.89584
A-4778,Oc1ccccc1c2ccccc2,-2.506711754,13,33.0,0.944,-0.000132578143,-0.0014445968609999,-0.002202944761,0,1,160.12823569999998,0,1,7,10.0,0.0,148.59026640712514,286.436,111.541092
C-1923,CC(=O)OC1=CC2=C(C=CC=C2)C=C1,-3.44,14,36.0,7.506,-0.000607029778,0.0007712933319999,-0.007270367079,0,5,176.1276406,0,2,7,8.0,0.0,164.867375899235,312.695,118.086544
A-998,Oc1ccc(cc1)c2ccc(O)cc2,-3.742373099,14,36.0,0.002,-0.002949795519,0.008194146537,-0.009100970847,0,4,176.1276406,0,2,16,9.0,0.0,156.28967720379993,323.076,116.398873
B-354,Oc1ccc(cc1O)c2ccccc2,-2.0659,14,36.0,5.965,-0.0018010806039999,0.008463414786,-0.007911143204,0,2,176.1276406,0,2,12,10.0,0.0,154.7463383316564,349.684,116.48003500000002
B-1869,Oc1ccccc1Oc2ccccc2,-3.2286,14,36.0,6.76,-0.002792685296,0.003879796289,-0.016416897482,0,3,176.1276406,0,2,9,10.0,0.0,158.16921843062738,300.757,115.708806
B-3727,OC(=O)Cc1cccc2ccccc12,-2.6468,14,36.0,7.246,-0.003124040546,0.00662790112,-0.01341402655,0,4,176.1276406,0,2,10,10.0,-0.001,155.02997067212178,311.427,115.939275
A-2402,O=[S](=O)(c1ccccc1)c2ccccc2,-4.192879941,15,39.0,3.2310000000000003,-0.0067379371349999,0.004729408712,-0.022804286559,0,6,208.192428,0,2,8,14.0,0.0,174.58230026773452,343.959,136.38589199999998
C-531,OC(=O)COC1=CC2=C(C=CC=C2)C=C1,-3.36,15,39.0,4.502,-0.000899418694,0.0028881568849999,-0.010792840348,0,3,192.1270456,0,3,19,13.0,0.0,176.69962223005572,361.832,124.336642
E-1244,O=C1C=CC(c2cc(ccc2O)O)(C=C1)O,-1.73,16,42.0,1.632,-0.004902138503,0.01783326971,-0.009891076883,0,7,208.1264505,0,4,12,10.0,0.0,179.5475218263718,329.42900000000003,120.739065
A-3021,Oc1ccc(cc1)[S](=O)(=O)c2ccc(O)cc2,-2.357024785,17,45.0,4.346,-0.010826817171,0.018073982963,-0.052501321676,0,8,240.19123790000003,0,4,20,14.0,0.0,191.1756919029556,363.513,143.00868400000002
F-660,O=S(=O)(C1=CC(O)=CC=C1)C1=CC(O)=CC=C1,-2.33,17,45.0,0.427,-0.009812461853,0.0173639014889999,-0.033234639361,0,10,240.19123790000003,0,4,8,12.0,0.0,190.12539672963567,377.761,144.480475
F-659,O=S(=O)(C1=CC(O)=CC=C1)C1=C(O)C=CC=C1,-2.29,17,45.0,3.604,-0.009120153035,0.012021449233,-0.033224913619,0,8,240.19123790000003,0,4,11,12.0,0.0,189.4620600870277,347.168,146.84517
B-2445,Oc1ccccc1[S](=O)(=O)c2ccccc2O,-3.3192,17,45.0,4.941,-0.006526030161,0.009603748107,-0.025203138801,0,8,240.19123790000003,0,4,12,12.0,-0.001,191.12649174815903,341.314,145.20498999999998
B-2178,Oc1ccc(Sc2ccccc2)cc1,-2.7745,14,36.0,5.891,-0.002540790146,0.004902203265,-0.009527984502,0,4,192.1930231,0,1,7,8.0,0.0,170.02033552135077,317.843,128.344823
A-349,S(c1ccccc1)c2ccccc2,-4.360607869,13,33.0,0.228,-2.642955e-06,-0.002245378112,-0.00211133483,0,2,176.19361819999995,0,0,8,11.0,-0.001,162.02353541557238,324.98400000000004,125.461992
B-3053,Clc1ccc(c(Cl)c1)C2(Cn3cncn3)OCCO2,-3.0031,19,51.0,7.1,-0.00184020183,0.001599717765,-0.0279892647489999,0,9,289.0536254,3,2,17,14.0,0.0,221.41194037156677,439.682,163.684271
B-2641,CC(C)(NC(=O)c1cc(Cl)cc(Cl)c1)C#C,-4.2324,14,42.0,22.039,-0.002552553573,0.002787986389,-0.060391235516,0,10,245.0408141,1,1,10,8.0,0.0,211.47717391288705,424.193,148.758235
C-2045,COCC1(C)OC(=O)N(C1=O)C2=CC(=CC(=C2)Cl)Cl,-4.66,18,51.0,7.818,-0.003584768125,0.009545634454,-0.025444995857,0,15,293.0390289,1,4,9,9.0,0.0,222.6399363279111,434.371,161.240621
B-3307,FC(F)(F)C(=N/OCC1OCCO1)/c2ccc(Cl)cc2,-4.0138,19,54.0,0.821,-0.000301354751,0.006606132632,-0.003972645689,0,18,298.5818958,1,3,8,7.0,0.001,219.306316288422,399.361,153.162188
F-1160,O=C1NC2=C(C=C(Cl)C=C2)C(=O)N2CCCC12,-4.7,17,45.0,12.646,-0.004338894497,0.006678356509,-0.033491630374,0,9,239.5939846,2,2,11,10.0,0.0,186.399125234446,359.646,140.828049
C-839,NC1=CC=C(C=C1)[S](=O)(=O)NC2=CC=C(Cl)C=C2,-4.13,17,48.0,4.3580000000000005,-0.0041852231459999,0.002471049064,-0.0266919967689999,0,9,271.658772,2,2,11,12.0,0.0,219.67606085501689,393.541,165.112211
F-1137,NS(=O)(=O)C1=C(Cl)C=C(NCC2=CC=CO2)C(C(=O)O)=C1,-3.83,21,57.0,10.561,-0.011278726053,0.015380556688,-0.04547714754,0,13,319.6569868,2,5,13,13.0,0.0,242.5705466730068,423.805,179.545865
F-935,CC1=CC=C(CN2C=C(F)C(=O)NC2=O)C=C1,-2.92,17,45.0,6.682,-0.002571457337,0.007374130079,-0.016585318095,0,7,223.1394502,2,2,13,11.0,0.0,195.24431731407628,367.934,133.246049
F-836,COC1=CC=C(CN2C=C(F)C(=O)NC2=O)C=C1,-2.75,18,48.0,21.626,-0.003822861662,0.007013703651,-0.061437872574,0,10,239.1388551,2,3,16,10.0,0.0,197.4960346629486,373.712,139.55275
B-944,CC(=O)NCc1c(I)c(NC(C)=O)c(I)c(C(O)=O)c1I,-2.3208,20,57.0,17.791,-0.005377459913,0.004582569603,-0.090792371968,0,18,616.8532726,2,4,12,15.0,0.0,286.7973090712137,492.003,238.03352400000003
C-942,NC1=CC=C(C=C1)[S](=O)(=O)NC2=CC=C(I)C=C2,-4.52,17,48.0,7.067,-0.004368264868,-0.001343548551,-0.031136432217,0,9,363.1103064,2,2,10,10.0,0.0,230.34994691645468,415.593,183.26612
B-3683,N(c1ccccc1)c2ccccc2,-3.5042,13,33.0,2.292,-1.177892e-06,-0.004914456653,-0.005787678822,0,1,158.135534,1,0,7,10.0,0.0,153.02887600400544,287.699,113.415006
A-1293,Nc1ccccc1c2ccccc2,-2.861113735,13,33.0,2.291,-1.178158e-06,-0.004914385372,-0.005788261702,0,1,158.135534,1,0,7,10.0,0.0,152.55857964975235,287.704,113.415165
B-786,N(N=Nc1ccccc1)c2ccccc2,-2.596,15,39.0,1.874,-1.589281e-06,-0.0066510782519999,-0.019035597155,0,0,186.1489404,3,0,14,14.0,0.0,171.58202814429907,354.829,127.367803
A-982,Nc1ccc(cc1)N=Nc2ccccc2,-3.759703076,15,39.0,6.382999999999999,-8.407333e-06,-0.007769056464,-0.022642791991,0,1,186.1489404,3,0,18,10.0,0.0,172.52396730084217,354.471,127.091952
C-913,CC1=CC=C(N[S](=O)(=O)C2=CC=C(C=C2)[N+]([O-])=O)N=C1,-4.29,20,54.0,12.763,-0.010590516791,0.014158593531,-0.030943154825,0,12,282.2113475,3,4,15,15.0,-0.001,227.31104939928383,423.575,168.460242
C-916,NC1=CC=C(C=C1)[S](=O)(=O)NC2=CC=C(C=C2)[N+]([O-])=O,-3.94,20,54.0,8.361,-0.011900374495,0.014655865902,-0.0418411256149999,0,10,282.2113475,3,4,14,14.0,0.0,228.1846655474064,397.294,164.972385
C-928,NC1=CC=C(C=C1)[S](=O)(=O)NC2=CC=CC=C2[N+]([O-])=O,-4.49,20,54.0,7.155,-0.007504972587,0.008693961568,-0.049722542219,0,12,282.2113475,3,4,15,13.0,0.0,208.7860158679088,420.918,168.68459199999998
A-3276,Nc1ccc(Nc2ccc(cc2[S](O)(=O)=O)[N+]([O-])=O)cc1,-1.59828953,21,57.0,10.131,-0.012582016731,0.0156050284419999,-0.043662957829,0,13,298.2107524,3,5,12,14.0,0.0,229.6281379862144,400.522,172.7611
F-990,C1=CC=C(CNC2=NC=NC3=C2N=CN3)C=C1,-3.6,17,45.0,3.404,-7.807725e-06,-0.009027454882,-0.020495206139,0,4,214.1623469,5,0,12,13.0,-0.001,184.6611416854516,369.074,138.06346100000002
C-661,CC1=NC(=O)C(=C(NCC2=CN=CC=C2)N1)C#N,-2.35,18,48.0,9.211,-0.002650097763,-0.00369932097,-0.0322391795289999,0,6,230.1617518,5,1,16,12.0,0.0,200.73221675409985,389.222,144.51504
A-2834,Nc1cc(N)c(cc1N=Nc2cc(ccc2O)[N+]([O-])=O)[S]([O-])(=O)=O,-0.763942094,24,66.0,15.028,-0.020159205649,0.022847640642,-0.111379612145,0,14,342.2235638,5,6,20,19.0,0.0,265.37041178756704,464.11300000000006,195.745153
G-1116,Nc3nc(N)c2nc(c1ccccc1)c(N)nc2n3,-2.404,19,51.0,8.267999999999999,-1.5022364e-05,-0.0119029795959999,-0.0251884791479999,0,3,242.17575330000005,7,0,23,13.0,0.0,222.14239271874803,403.838,154.232253
G-476,CNC(=O)Oc1cccc2ccccc12,-3.224,15,39.0,4.333,-0.00149655922,0.000491450887,-0.007510536382,0,4,190.1343438,1,2,12,12.0,0.0,167.5169073513371,335.411,124.528465
B-2646,Cc1occc1C(=O)Nc2ccccc2,-3.3037,15,39.0,2.658,-0.00013100214,-0.001574264916,-0.0044267788059999,0,5,190.1343438,1,2,9,10.0,0.0,170.54759612901418,325.96,124.010856
B-3465,Cc1ccc(cc1)C(=O)c2csc(c2)[S](N)(=O)=O,-4.4492,17,48.0,7.845,-0.01162868927,0.012922654958,-0.048829517723,0,11,270.2633236,1,3,12,10.0,0.001,219.80836849230755,376.408,166.657687