Name,SMILES,Solubility,AtomNum,DegFreedom,Dipole,Ghb,Gsasa,Gsolv,HNum,LP,MolWt,NNum,ONum,PiCenters,PiDeloc,Quadrupole,Volume,SASA,Polarizabilty
A-1141,OCc1cccc(Oc2ccccc2)c1,-2.825873142,15,39.0,6.702000000000001,-0.002407059726,0.004792018712,-0.008720662828,0,3,188.1383765,0,2,8,13.0,-0.001,172.23529723557044,315.897,124.544636
B-2563,CCOc1ccc(C(O)=O)c2ccccc12,-4.1122,16,42.0,8.661,-0.004498634277,0.007517744862,-0.031139047893,0,5,204.1377815,0,3,12,14.0,0.0,176.72611185061962,352.036,131.414851
B-2816,CC(C)NC(=O)N1CC(=O)N(C1=O)c2cc(Cl)cc(Cl)c2,-4.3757,19,57.0,12.364,-0.00306124895,0.009006411607,-0.015908617323,0,14,317.0637663,3,3,12,12.0,0.0,252.0785821735652,464.825,180.430104
A-4824,OC[C@@H]1CO[C@](Cn2cncn2)(O1)c3ccc(Cl)cc3Cl,-2.905955068,20,57.0,9.608,-0.0024248169839999,0.006320740139,-0.037769767275,0,13,317.0637662,3,3,16,12.0,0.0,243.93191360010135,452.611,180.362499
C-875,CC1=C(N[S](=O)(=O)C2=CC=C(N)C=C2)C=C(Cl)C=C1,-3.98,18,51.0,1.774,-0.003860198444,0.001238958601,-0.0251322120129999,0,10,283.6695079,2,2,10,14.0,0.0,233.5514100848436,404.752,174.165076
C-864,CC1=C(Cl)C=C(N[S](=O)(=O)C2=CC=C(N)C=C2)C=C1,-4.91,19,51.0,5.442,-0.00770049468,0.005019989079,-0.022914883849,0,12,283.6695079,2,2,11,11.0,0.0,239.08150381964924,381.208,175.035426
C-877,CC1=CC(=C(N[S](=O)(=O)C2=CC=C(N)C=C2)C=C1)Cl,-4.32,19,51.0,7.044,-0.006983358423,0.002291182341,-0.030269021521,0,12,283.669508,2,2,12,12.0,0.0,216.15032752612805,404.166,176.480816
C-865,CC1=C(N[S](=O)(=O)C2=CC=C(N)C=C2)C=CC(=C1)Cl,-4.35,19,51.0,2.45,-0.004254528156,0.000450721714,-0.036546255586,0,12,283.669508,2,2,11,12.0,0.0,217.31099327828883,446.301,175.006746
C-891,CC1=C(C=CC(=C1)N)[S](=O)(=O)NC2=C(Cl)C=CC=C2,-5.05,18,51.0,10.854,-0.006722783533,0.0030187113789999,-0.037221698945,0,11,283.6695079,2,2,13,12.0,0.0,230.1034865378548,394.8130000000001,170.659849
C-869,CC1=C(C=CC(=C1)N)[S](=O)(=O)NC2=CC=C(Cl)C=C2,-4.42,18,51.0,6.849,-0.007709252635,0.00503317204,-0.024846835387,0,12,283.6695079,2,2,8,10.0,0.001,230.65252961673087,391.829,173.766719
C-932,COC1=C(N[S](=O)(=O)C2=CC=C(N)C=C2)C=CC=C1Cl,-4.15,20,54.0,16.785999999999998,-0.007333799494,0.003463065339,-0.049620092413,0,13,299.66891289999995,2,3,14,9.0,0.0,238.76495027960465,420.201,172.95316699999998
A-1679,NC(Nc1ccccc1)=Nc2ccccc2,-2.157516386,16,42.0,4.456,-4.440206999999999e-06,-0.006995048241,-0.00978538857,0,2,198.1596763,3,0,11,13.0,0.0,186.37725293655225,321.382,135.980399
B-2551,CC(=O)Nc1ccc(cc1)[S](=O)(=O)Nc2ccccn2,-3.7162,20,54.0,8.267999999999999,-0.007006760245,0.0071314262719999,-0.021149801875,0,9,278.22267850000003,3,3,17,16.0,0.001,227.227820033294,438.033,169.512713
F-919,NS(=O)(=O)C1=CC2=C(O1)SC(CNCC1=CC=CC=N1)=C2,-1.33,20,57.0,5.352,-0.00969521227,0.00834438977,-0.035188734604,0,10,310.2874659,3,3,15,19.0,0.0,249.15118371245677,494.079,192.325599
C-962,CC1=C(C=CC(=C1)N)[S](=O)(=O)NC2=C(C=CC=C2)[N+]([O-])=O,-4.51,21,57.0,2.426,-0.008595986998,0.008986701456,-0.029377877037,0,12,294.2220834,3,4,16,16.0,0.0,238.2798931811844,391.823,176.95513
F-88,CC1=CC=C(N2C=CC(=O)C(O)=C2C)C=C1,-3.22,16,42.0,8.015,-0.002564484712,0.0061086392649999,-0.017039280609,0,6,202.1450798,1,2,8,9.0,-0.001,183.21681242274292,332.217,131.468841
B-3375,[NH3+][C@H](CC([O-])=O)c1cccc2ccccc12,-1.5902,16,42.0,13.115,-0.00282086974,0.003353896899,-0.026565152606,0,5,202.1450798,1,2,14,14.0,0.001,182.39441536647465,355.092,131.869895
F-397,CCC(C)(C(=O)O)N1C(=O)C2=C(C=CC=C2)C1=O,-1.91,18,48.0,9.008,-0.002611373474,0.010540632415,-0.010218061306,0,8,234.1438896,1,4,16,14.0,0.0,201.8031683285604,379.1880000000001,143.018585
C-1290,OC(=O)C1CCN1C(=O)COC(=O)C2=CC=CC=C2,-2.14,19,51.0,10.909,-0.004440739175,0.011782815654,-0.022304436254,0,9,250.1432945,1,5,16,11.0,0.0,205.34862086511345,386.148,141.155797
A-4613,C[P](=O)(Oc1ccccc1)Oc2ccccc2,-2.2017086740000003,17,45.0,1.823,-0.004363698066,0.002143105494,-0.007036645496,0,7,235.1115435,0,3,6,11.0,0.0,203.0293991024841,356.162,149.492417
B-668,CO[P](=O)(Oc1ccccc1)Oc2ccccc2,-2.1209,18,48.0,2.59,-0.014536371736,0.002916084951,-0.033013763462,0,6,251.1109484,0,4,15,15.0,0.0,209.68412646584164,390.421,158.902353
D-1894,CC(C)c1ccc2ccccc2c1,-5.297999999999999,13,33.0,8.99,-1.383236e-06,-0.004535074429,-0.013393447043,0,2,156.1395667,0,0,6,7.0,0.0,161.1452542737454,316.237,116.480972
A-1409,CC(C)c1cccc2ccccc12,-4.782393555,13,33.0,2.522,-5.67997e-07,-0.004075224324,-0.004590204119,0,1,156.1395667,0,0,6,9.0,0.0,157.8928399711829,284.171,114.862532
B-4010,Cc1ccc2cc(C)c(C)cc2c1,-5.0007,13,33.0,6.589,-1.4705269999999998e-06,-0.004332341596,-0.007307777891,0,2,156.1395667,0,0,7,10.0,-0.001,170.76935983359516,302.1,114.109739
C-423,CC1=CC=C(C)C2=C1C=CC=C2C,-4.92,13,33.0,2.372,-6.884480000000001e-07,-0.004089493925,-0.005041532982,0,1,156.1395667,0,0,6,9.0,0.0,159.23117632943388,285.166,114.794633
G-640,CCN(CC(C)=C)c1c(cc(cc1N(=O)=O)C(F)(F)F)N(=O)=O,-6.124,23,63.0,4.1,-0.006147571429,0.020016791012,-0.03452865437,0,19,319.1525055,3,4,16,17.0,-0.001,251.0659278845009,461.765,168.019776
A-2308,CC1(C)Nc2cccc3cccc(N1)c23,-2.929898895,15,39.0,9.983,-3.894802e-06,-0.005868952263,-0.018136215726,0,2,184.1529731,2,0,6,12.0,0.0,175.5432322327387,322.839,129.65478000000002
A-1878,Nc1ccc(Cc2ccc(N)cc2)cc1,-2.292933442,15,39.0,0.0279999999999999,-1.1022531e-05,-0.008786615304,-0.020212223171,0,2,184.1529731,2,0,12,10.0,0.0,175.34019052857772,356.88699999999994,128.707469
B-3379,CCOc1ccc(NC(C)=O)c2cccnc12,-1.5171,17,45.0,6.526,-0.00036600935,-0.001075454249,-0.012443473986,0,5,216.151783,2,2,15,15.0,0.0,192.43980741559844,372.56,139.710615
C-545,CCC1(C(=O)NC(=O)N(C)C1=O)C2=CC=CC=C2,-3.68,18,48.0,13.501,-0.003767120533,0.008721485243,-0.0349560708259999,0,6,232.1511879,2,3,16,13.0,0.0,200.056907679207,344.68699999999995,142.224805
C-1352,CCN1C=C(C(=O)OC)C(=O)C2=C1N=C(C)C=C2,-2.7,18,48.0,2.769,-0.001177820158,0.00313801901,-0.017293915578,0,7,232.1511879,2,3,14,11.0,0.0,207.1678385642369,397.621,146.309987
F-1164,CC(=O)NC(CC1=CNC2=C1C=CC=C2)C(=O)O,-2.31,18,48.0,3.442,-0.0011338210739999,0.002771187941,-0.005153076404,0,5,232.1511879,2,3,17,15.0,0.0,203.11440743623885,374.887,142.53400200000002
C-843,COC1=CC=C(N[S](=O)(=O)C2=CC=C(N)C=C2)C=C1,-4.23,19,51.0,6.278,-0.004289269335,-0.00063237857,-0.039644807943,0,9,264.2159753,2,3,13,13.0,0.0,205.67283395023568,414.112,166.933314
C-2005,CCC1(C(=O)NC(=O)N(CO)C1=O)C2=CC=CC=C2,-1.6,19,51.0,3.717,-0.00247933345,0.012454364377,-0.002359183749,0,7,248.15059280000003,2,4,19,13.0,0.0,210.78313861375477,377.694,145.835083
C-1714,CN1C(=O)C23CC4=CC=CC(O)C4N2C(=O)C1(CO)SS3,-3.67,20,57.0,8.634,-0.0044405736979999,0.018354653073,-0.011950639128,0,13,312.2801676,2,4,13,12.0,0.0,238.79968131957187,391.474,184.299781
B-133,CN1C(=O)[C@]23CC4=CC=C[C@H](O)[C@H]4N2C(=O)[C@@]1(CO)SS3,-3.6687,21,57.0,8.214,-0.004108100262,0.017519354432,-0.012111624973,0,12,312.2801676,2,4,16,12.0,0.0,242.98805883765831,403.088,188.403272
F-571,CN1C(=O)C(CC2=CC=C(O)C=C2)N(CC(=O)O)C1=O,-0.05,20,54.0,5.65,-0.0050624679369999,0.018318562686,-0.0124714918509999,0,10,264.1499977,2,5,18,15.0,0.0,224.61881811459068,416.358,150.038401
C-1345,CC(=O)OC1=CC=CC=C1C(=O)OCC(=O)NCC(N)=O,-2.52,21,57.0,21.698,-0.004425773206,0.0126091598769999,-0.052595287621,0,9,280.14940260000003,2,6,23,17.0,0.0,235.131855730932,445.405,159.106808
C-2332,NC1=CC=C(C=C1)[S](=O)(=O)NC2=NC(=O)N(CC=C)C=C2,-3.11,21,57.0,4.812,-0.0068204037,0.00550126279,-0.033104943073,0,11,292.2293817,4,3,18,13.0,0.001,221.39155034233255,477.981,182.187036
C-2220,[O-][N+](=O)C1=C(C=C(C(=O)N2CCOCC2)C(=C1)[N+]([O-])=O)N3CC3,-2.89,23,63.0,4.131,-0.0062923622869999,0.019286984781,-0.023641558018,0,13,308.1628091,4,6,19,18.0,0.0,234.91114901074883,433.77,173.859819
C-1297,CCOC(=O)COC(=O)C1=CC=CC=C1OC(C)=O,-2.58,19,51.0,15.697,-0.0031055612,0.008316683843,-0.032778872439,0,10,252.1359962,0,6,18,13.0,0.0,211.88368100761008,412.16,146.469114
B-3536,COC(=O)C1(CCCC1)[S](=O)(=O)c2ccc(Br)cc2,-4.0104,18,51.0,5.111000000000001,-0.006008986816,0.005663386841,-0.0361730772569999,0,11,332.1055016,0,4,16,14.0,0.0,227.51235795191468,413.767,174.110049
B-3110,CCCC(Cn1cncn1)c2ccc(Cl)cc2Cl,-3.5903,17,48.0,5.611000000000001,-8.378123e-06,-0.006000225396,-0.023371534979,0,8,269.0655515,3,0,18,12.0,0.001,221.1928036813545,449.217,166.754468
B-3378,COC(=O)c1c(Cl)nn(C)c1[S](=O)(=O)NC(=O)Nc2nc(OC)cc(OC)n2,-4.4642,28,78.0,7.886,-0.009281047402,0.0093025473419999,-0.073837636254,0,22,419.6933454,6,7,19,15.0,0.0,312.5088056141615,561.545,230.79266
B-3522,CC(C)OC(=O)C1(CC1)[S](=O)(=O)c2ccc(Cl)cc2,-3.5401,18,51.0,4.262,-0.008947171472,0.016321716976,-0.0239878514979999,0,12,287.65491139999995,0,4,11,10.0,0.0,226.1484308187188,398.304,170.164286
A-22,COCCCCC(=O)c1ccc(cc1)C(F)(F)F,-3.544059701,18,48.0,20.173,-0.002922654471,0.008693666033,-0.047272627598,0,12,245.133586,0,2,10,11.0,0.0,196.69651606569127,415.45,136.396941
B-315,CN(C)C(=O)Oc1cc(C)nn1c2ccccc2,-2.0886,18,48.0,3.334,-0.001299165082,-0.001316883166,-0.011741116987,0,7,230.1584862,3,2,14,13.0,0.0,206.8290967740256,383.417,145.45908899999998
A-4472,CC(C)C1(C)N=C(NC1=O)c2ncccc2C(O)=O,-1.364029386,19,51.0,13.169,-0.005306238648,0.008304816691,-0.0447650576769999,0,7,246.1578911,3,3,18,18.0,0.0,228.0540846035172,415.03,152.181253
F-1172,NC(CC1=CNC2=C1C=CC=C2)C(=O)NCC(=O)O,-0.85,19,51.0,8.167,-0.002817192332,0.005194299619,-0.0193960874769999,0,7,246.1578911,3,3,15,11.0,0.0,213.2140347303768,378.904,149.74552
C-2308,COC1=C(N[S](=O)(=O)C2=CC=C(N)C=C2)C=C(N)C=C1,-5.08,20,54.0,6.132000000000001,-0.0037705402159999,-6.1236142e-05,-0.0349116783389999,0,8,278.22267850000003,3,3,17,15.0,-0.001,240.24746663148747,380.018,168.337118
G-367,CC(=O)N(S(=O)c1ccc(N)cc1)c2onc(C)c2C ,-3.59,20,54.0,5.6160000000000005,-0.002495123898,0.002642787845,-0.025166148008,0,10,278.22267850000003,3,3,18,16.0,0.0,238.61716337499004,438.637,167.371667
E-918,c1cc(N)ccc1S(=O)(=O)N(C(=O)C)c2onc(C)c2C,-3.59,21,57.0,9.936,-0.0061492158349999,0.006348978623,-0.043892639652,0,11,294.2220834,3,4,13,14.0,0.0,245.03238356966943,390.247,172.97832
C-1830,CC1=C(CCCO1)C(=O)NC2=CC=CC=C2,-2.56,16,42.0,1.724,-7.6371174e-05,-0.002123134965,-0.0045342400449999,0,5,202.1450798,1,2,9,11.0,0.001,182.89925463460528,345.657,131.747799
B-4450,CCC1(CCC(=O)NC1=O)c2ccccc2,-2.3374,16,42.0,3.669,-0.002470491962,0.0068389288139999,-0.008189260281,0,4,202.1450798,1,2,16,13.0,0.0,177.0494920516786,391.162,133.244922
B-2216,O=C1CCCCCN1C(=O)c2ccccc2,-2.1667,16,42.0,6.854,-0.00322439149,0.004996384794,-0.022826217025,0,5,202.1450798,1,2,9,11.0,0.0,181.159920266598,325.434,131.265026
C-1238,O=C(COC(=O)C1=CC=CC=C1)N2CCCC2,-1.57,17,45.0,6.306,-0.002679668761,0.003786252698,-0.017005076666,0,6,218.1444847,1,3,15,12.0,0.001,190.52541629777645,372.706,133.83348600000002
B-3416,O=C(COC(=O)c1ccccc1)N2CCOCC2,-1.7734,18,48.0,5.948,-0.002670326961,0.005525578344,-0.014281516345,0,6,234.1438896,1,4,14,12.0,-0.001,206.7893863658031,377.631,141.406055
C-1295,CCNC(=O)COC(=O)C1=CC=CC=C1OC(C)=O,-1.68,19,51.0,8.019,-0.001934627588,0.005336396816,-0.015399280952,0,11,250.1432945,1,5,13,13.0,0.0,213.12122784631748,415.042,147.939257
C-1298,CN(C)C(=O)COC(=O)C1=CC=CC=C1OC(C)=O,-1.55,19,51.0,12.075,-0.0032299492489999,0.0074336535,-0.025354726774,0,11,250.1432945,1,5,13,12.0,0.001,215.95719213312057,404.397,147.23553700000002
B-3106,CC(=O)OCC(C(OC(C)=O)c1ccccc1)[N+]([O-])=O,-3.972,20,54.0,7.468,-0.00393098609,0.013365655275,-0.0120823963669999,0,11,266.1426994,1,6,15,12.0,0.0,225.5895508339801,371.104,150.204955
B-3107,CC(=O)OC[C@H]([C@@H](OC(C)=O)c1ccccc1)[N+]([O-])=O,-3.972,20,54.0,6.617999999999999,-0.004320351789,0.012976976238,-0.016103109262,0,12,266.1426994,1,6,12,10.0,0.0,225.11168477947783,362.876,151.287101
B-3526,CC(C)OC(=O)C1(CC1)[S](=O)(=O)c2ccc(cc2)[N+]([O-])=O,-4.2605,21,57.0,2.2,-0.01077008332,0.018732215165,-0.040705512081,0,15,298.2074868,1,6,14,13.0,0.0,237.1960430213054,443.867,174.52650400000002
B-1735,CNC1(CCCCC1=O)c2ccccc2Cl,-0.1369999999999999,16,42.0,3.168,-0.000843583817,0.002347073911,-0.005396599467,0,5,221.5986124,1,1,9,11.0,0.001,165.58696861284642,394.871,144.118079
C-758,CCCN(CCC)C1=C(C=C(C=C1[N+]([O-])=O)C(F)(F)F)[N+]([O-])=O,-6.05,23,63.0,4.0360000000000005,-0.005903437277,0.018996229122,-0.037809846345,0,19,319.1525055,3,4,15,14.0,0.0,243.79355906036665,452.182,167.35463
E-1247,CCCCN(CC)c1c(cc(cc1N(=O)=O)C(F)(F)F)N(=O)=O,-5.53,23,63.0,4.141,-0.0061461101809999,0.020019638063,-0.034539172484,0,19,319.1525055,3,4,16,14.0,0.0,242.26900817454867,461.832,168.020254
B-3471,COc1cc(OC)nc(NC(=O)N[S](=O)(=O)c2n(C)ncc2c3nnn(C)n3)n1,-2.6066,29,81.0,13.884,-0.007518333929,-0.00092582559,-0.080336278072,0,19,408.2684108,10,5,23,18.0,0.0,324.7781372540948,580.502,234.200586
F-826,CCC1=C2C=CC=CC2=NC(CN)=C1C,-1.48,15,39.0,7.097,-4.136283e-06,-0.007211770005,-0.015932556564,0,4,184.1529731,2,0,10,10.0,0.0,175.12790521809146,338.24800000000005,131.47225600000002
F-363,COC1=CC2=C(C=C1)NC=C2CCNC(C)=O,-5.09,17,45.0,10.167,-0.002643574572,0.000320022502,-0.027811642871,0,4,216.151783,2,2,14,10.0,0.001,191.41121405589905,393.869,140.12963200000002
F-675,CC(C)(NC(=O)C1=CC=CC=C1)C(=O)NCC(=O)O,-0.56,19,51.0,10.243,-0.003460555036,0.00830569767,-0.01920943037,0,9,248.15059280000003,2,4,16,12.0,0.0,230.1677962487664,395.30300000000005,150.940595
C-1960,CCC(C(=O)NC(N)=O)(C(=O)OC)C1=CC=CC=C1,-2.75,19,51.0,10.558,-0.001572979002,0.004155800829,-0.021304997017,0,9,248.15059280000003,2,4,17,15.0,0.0,221.6210131314053,406.548,148.296134
C-2018,CC(=O)NC(CC1=CC=C(OC(C)=O)C=C1)C(N)=O,-1.9,19,51.0,2.935,-0.001958374095,0.0069611779839999,-0.00964335187,0,7,248.15059280000003,2,4,16,16.0,0.0,221.65843373450727,422.41,144.905449
E-919,CC(=O)Oc1c(N(=O)(=O))c(C)c(N(=O)(=O))cc1C(C)(C)C,-4.47,21,57.0,1.909,-0.00406049881,0.016035677575,-0.011050301734,0,12,280.14940260000003,2,6,11,15.0,0.001,241.3737683889153,404.825,154.159302
B-1887,CC(=O)Oc1c(cc(c(C)c1C(C)(C)C)[N+]([O-])=O)[N+]([O-])=O,-4.4717,21,57.0,2.092,-0.004572089455,0.016603338473,-0.011829733981,0,12,280.14940260000003,2,6,14,15.0,0.0,241.6460070432097,398.009,154.3665
A-2151,C1CCC(CC1)NSc2sc3ccccc3n2,-5.91714268,16,45.0,6.569,-0.000180200227,-0.002009107176,-0.008143084439,0,5,248.28254790000005,2,0,11,13.0,0.0,207.26919563245968,391.935,168.705427
C-2335,CC(C)N1C=CC(=NC1=O)N[S](=O)(=O)C2=CC=C(N)C=C2,-3.17,21,57.0,4.752,-0.00647766677,0.004262742971,-0.032266898208,0,10,292.2293817,4,3,20,15.0,-0.001,228.26608321449868,508.872,182.185534
C-2277,CCC(=O)OCSC1=NC=NC2=C1N=C[N]2COC(=O)CC,-2.78,22,60.0,3.262,-0.0009417672289999,0.005476616642,-0.00422287387,0,10,308.22878660000003,4,4,24,19.0,0.0,271.74723490571887,560.4580000000001,186.942556
C-2190,CC(C)(C)NC(=O)C1=CC(=C(C=C1[N+]([O-])=O)[N+]([O-])=O)N2CC2,-3.17,22,60.0,3.5810000000000004,-0.006180583084,0.014894163056,-0.0303260391239999,0,14,292.16340410000004,4,5,17,13.0,0.0,244.89503688440576,439.002,169.324349
C-2197,CCN(CC)C(=O)C1=CC(=C(C=C1[N+]([O-])=O)[N+]([O-])=O)N2CC2,-2.59,22,60.0,1.609,-0.006079953619,0.016013672393,-0.030483226211,0,14,292.16340410000004,4,5,18,17.0,0.001,234.33801481477585,438.508,171.208381
C-2169,CC(C)CNC(=O)C1=CC(=C(C=C1[N+]([O-])=O)[N+]([O-])=O)N2CC2,-3.85,22,60.0,2.827,-0.006742035002,0.016688198318,-0.031513839891,0,14,292.16340410000004,4,5,16,16.0,0.0,234.5283708578421,454.85,168.563797
B-802,[O-][N+](=O)c1oc(cc1)/C=N/N2CC(CN3CCOCC3)OC2=O,-2.6359,23,63.0,11.262,-0.005858717463,0.016798970564,-0.042028965928,0,8,308.1628091,4,6,23,19.0,0.0,233.2622851019129,499.635,174.31931
C-2452,NCC(=O)NCC(=O)OCCOC1=CC2=C(C=C1)N=C(S2)[S](N)(=O)=O,-1.3,25,69.0,13.249,-0.0135752991859999,0.017065302184,-0.04966110717,0,15,372.2923839,4,6,25,18.0,0.0,281.8523179744272,536.305,211.643761
B-2547,CCO[P](=S)(OCC)Oc1cc(on1)c2ccccc2,-5.2172,20,54.0,7.577000000000001,-0.001513132546,0.004717466224,-0.00517994797,0,10,297.182439,1,4,12,16.0,-0.001,242.6519957336211,440.895,184.200031
A-1550,O=C(C1CCCCC1)c2ccccc2,-4.014709735,14,36.0,4.343999999999999,-0.001612819428,0.001210442127,-0.00888364524,0,2,172.1389716,0,1,8,11.0,0.0,161.6662404756843,302.45,120.135867
A-3256,C=CC(=O)OC1C=CC2C3CCC(C3)C12,-3.708142472,15,39.0,6.45,-0.000280787889,0.000713018621,-0.012384152687,0,5,188.1383765,0,2,12,8.0,0.0,178.85067523572354,332.31,122.039748
B-1111,CCCCOC(=O)/C=C/c1ccccc1,-1.6112,15,39.0,8.231,-0.002110785422,0.001869993416,-0.012655023876,0,4,188.1383765,0,2,16,11.0,0.0,176.7301427115522,384.844,126.478325
A-848,CC\C=C/CCOC(=O)c1ccccc1,-3.704897417,15,39.0,4.089,-0.0018073194649999,0.000773915546,-0.010477328501,0,3,188.1383765,0,2,14,15.0,0.0,176.6595250677271,380.661,126.477018
A-773,OC1(CCCCC1)C(=O)c2ccccc2,-2.664780194,15,39.0,6.497999999999999,-0.002826989906,0.0053907989799999,-0.014003817972,0,4,188.1383765,0,2,11,12.0,-0.001,176.09787593474073,311.952,125.367595
A-701,CC/C=C/CCOC(=O)c1ccccc1O,-4.643981404,16,42.0,7.282,-0.002692411437,0.004365638402,-0.021794145554,0,6,204.1377815,0,3,15,14.0,0.001,184.028646995836,387.999,131.951074
A-553,Oc1ccccc1C(=O)OC2CCCCC2,-4.5540762930000005,16,42.0,7.395,-0.001995550764,0.002985441051,-0.017863705997,0,4,204.1377815,0,3,10,12.0,0.0,177.17785075763726,333.221,130.12575
C-1903,CCC(CC)C(=O)OC1=C(C=CC=C1)C(O)=O,-1.84,17,45.0,11.138,-0.000880430105,0.005158096759,-0.015043027847,0,6,220.1371864,0,4,17,14.0,0.0,194.0371906433442,380.044,138.27768899999998
A-3884,COc1cc(CC(C(C)=O)C(C)=O)ccc1O,-1.786365949,17,45.0,6.803,-0.001704815153,0.0137664924539999,-0.004453820842,0,5,220.1371864,0,4,18,16.0,0.0,208.1557696502812,387.319,135.00525
B-3542,COC(=O)C1(CCCC1)[S](=O)(=O)c2ccccc2,-2.5501,18,48.0,7.129,-0.0076138153229999,0.009226162734,-0.030243583845,0,9,252.2019738,0,4,16,15.0,0.0,214.2796762866137,381.655,152.051631
B-3519,CCOC(=O)C1(CC1)[S](=O)(=O)c2ccc(C)cc2,-3.0104,18,48.0,6.352,-0.0063163905119999,0.00631212103,-0.030084878856,0,10,252.2019738,0,4,14,12.0,0.0,218.1306324964859,400.914,157.185079
B-2158,CCOC(=O)C1=C(C)OC(=C(C(=O)OCC)C1=O)C,-1.5255,19,51.0,3.13,-0.001968646626,0.007681786694,-0.013158493292,0,11,252.1359962,0,6,11,12.0,0.0,214.91561762718567,400.285,147.461533
B-1359,OC[C@H]1O[C@@H](Oc2ccccc2C=O)[C@H](O)[C@@H](O)[C@@H]1O,-1.1985,20,54.0,6.7170000000000005,-0.004334254857,0.023828311737,-0.0078617844739999,0,13,268.1354011,0,7,14,13.0,-0.001,208.3498739472304,386.99300000000005,146.978521
F-650,CCCCCCOC(=O)C1=CC(Br)=C(O)C=C1,-4.22,16,45.0,2.428,-0.003701869467,0.0066412172089999,-0.0198426436079999,0,9,284.04130919999994,0,3,15,12.0,0.0,203.98300853272312,437.749,150.296627
F-649,CCCCCCOC(=O)C1=CC(Cl)=C(O)C=C1,-4.09,16,45.0,3.364,-0.003655665065,0.008450629465,-0.018016127088,0,9,239.590719,0,3,15,10.0,0.0,201.4491871728181,429.811,143.772582
B-2360,CCOC(=O)CCCOc1ccc(Cl)cc1C,-4.4095,16,45.0,15.524,-0.003031636133,0.005555216814,-0.036009634788,0,10,239.590719,0,3,13,12.0,0.001,205.86076084025075,423.814,146.719763
C-840,CCCN(CCC)C1=C(C(=C(C=C1[N+]([O-])=O)C(F)(F)F)N)[N+]([O-])=O,-7.07,24,66.0,6.142,-0.006317054725,0.016753911996,-0.044285794379,0,20,333.1592087,4,4,20,16.0,0.0,260.70001063047107,471.897,174.558092
C-766,CCCC(=O)OCC1OC(CC1O)N2C=C(I)C(=O)NC2=O,-2.84,21,60.0,9.787,-0.004098216006,0.012030661188,-0.020073667957,0,13,407.0538745,2,6,24,17.0,0.0,261.8564888514411,505.071,194.026861
C-770,CC(C)C(=O)OCC1OC(CC1O)N2C=C(I)C(=O)NC2=O,-2.76,21,60.0,11.559,-0.003806099264,0.01181453292,-0.0210100386249999,0,14,407.0538745,2,6,24,17.0,0.0,264.13578477115885,497.268,192.63032
F-651,CCCCCCOC(=O)C1=CC(I)=C(O)C=C1,-4.43,16,45.0,2.5810000000000004,-0.00372198109,0.0044542842,-0.02171214338,0,9,331.0422534,0,3,14,12.0,0.0,212.3786874067636,449.32,161.54230800000002
A-2466,CC(CC(C)(C)C#N)c1ccccc1,-3.235078816,14,36.0,5.176,-4.93765e-06,-0.006930049327,-0.014434869184,0,3,170.1462699,1,0,10,9.0,0.0,182.6549384231344,348.857,122.746283
I-28,C[C@H](CC1=CC=CC=C1)N(C)CC#C,-2.51,14,36.0,4.765,-2.338864e-06,-0.005184839178,-0.0131366372839999,0,3,170.1462699,1,0,9,9.0,-0.001,176.87125855153354,359.108,123.288677