Name,SMILES,Solubility,AtomNum,DegFreedom,Dipole,Ghb,Gsasa,Gsolv,HNum,LP,MolWt,NNum,ONum,PiCenters,PiDeloc,Quadrupole,Volume,SASA,Polarizabilty
B-932,OC(=O)C(F)F,1.0176,6,12.0,0.157,-0.001413132744,0.014866500338,0.008042262435,0,9,94.017088,0,2,4,3.0,0.0,60.434802219627066,182.827,33.11834
A-929,NC(=O)C(F)(F)F,-1.485022741,7,15.0,1.515,-0.000666941686,0.012165099834,0.007745262137,0,10,111.0227894,1,1,6,3.0,0.001,75.29362311721357,203.897,39.406309
A-4691,FCC(F)(F)F,-2.008727887,6,12.0,1.743,-0.0002403765659999,0.008824417802,0.004403262367,0,12,100.0150844,0,0,2,1.0,0.0,60.84138338325121,183.987,30.817055
E-139,IC=CI,-3.22,4,6.0,0.0,-8.893528e-06,-0.006821731598,-0.0064994745,0,6,277.83041560000004,0,0,3,1.0,-0.001,89.64747951213036,248.001,84.557109
C-1546,I\C=C\I,-3.22,4,6.0,0.001,-8.896728e-06,-0.006821720191,-0.006499495324,0,6,277.83041560000004,0,0,3,2.0,0.0,89.64723692323156,248.0,84.55710400000001
B-1260,I\C=C/I,-2.7813,4,6.0,0.001,-8.978212999999999e-06,-0.006822377791,-0.006501023639,0,6,277.83041560000004,0,0,3,2.0,0.0,89.66199858870473,248.04,84.557061
B-2595,S=C1NSC(=S)N1,-1.7618,7,15.0,3.3960000000000004,-0.000317111882,0.006070123018,0.0026090892189999,0,7,148.2292405,2,0,4,4.0,0.0,106.15949996649546,258.408,90.800739
B-1592,S=C1NNC(=S)S1,-0.7552,7,15.0,1.4269999999999998,-1.2713072e-05,0.005131504867,0.005405614692,0,8,148.2292404,2,0,2,4.0,0.0,106.26355427530856,256.685,90.989344
A-1569,[O-][N+](=O)C1=NC(=O)NN1,-0.87862532,9,21.0,1.297,-0.003202277332,0.012209759223,-0.0002116822529999,0,9,128.0464994,4,3,10,6.0,0.001,89.10342342037231,230.58900000000003,60.40171
B-521,O=CC=O,1.2363,4,6.0,0.0,-0.001001085028,0.0110769362409999,0.007087591523,0,4,56.0202816,0,2,6,4.0,0.0,46.78647350590211,161.571,27.992924
A-3002,OC(=O)C(O)=O,0.07901721,6,12.0,0.001,-0.002242185059,0.018104283501,0.0115770224509999,0,4,88.0190915,0,4,12,8.0,0.0,67.29837593472816,207.792,38.162048
D-91,BrC=C,-1.275,3,3.0,0.8240000000000001,-1.716205e-06,-0.002140000149,-0.002057880054,0,4,103.9249996,0,0,3,2.0,0.0,53.85065409519544,176.112,41.137812
B-1295,ClC(Br)CBr,-2.5546,5,9.0,2.333,-3.4672578e-05,-0.0011135560709999,-0.002065776256,0,10,219.28146490000003,0,0,2,1.0,0.0,91.67735780794816,247.327,76.530578
B-1298,NC(=O)C(Br)Br,-1.0574,6,12.0,0.569,-0.000830697538,0.003519699636,0.000629734044,0,8,213.8346355,1,1,6,2.0,0.0,96.89728398112328,248.429,73.1645
B-238,BrCC(Br)Br,-2.7272,5,9.0,2.6460000000000004,-0.000142561447,-0.0026651658559999,-0.004485427851,0,9,263.7320551,0,0,3,2.0,0.0,94.7248055564483,256.444,83.132641
B-3155,OCC(Cl)(Cl)Br,-0.4424,6,12.0,5.367999999999999,-0.000897855127,0.005863038119,-0.01118158179,0,11,190.8302797,0,1,5,2.0,0.0,101.30969857699137,257.897,73.316035
B-251,OC(=O)CBr,1.1002,5,9.0,1.825,-0.001970869124,0.008792201807,0.0007490327109999,0,8,135.9238094,0,2,3,2.0,-0.001,67.68499482446191,200.411,49.236001
D-1365,ClC=C,-1.36,3,3.0,2.262,-4.62994e-07,-0.000265171766,-0.000479621544,0,4,59.474409400000006,0,0,3,1.0,0.0,51.18552926395242,166.515,34.472612
B-1712,CC(F)(Cl)Cl,-2.4448,5,9.0,2.531,-6.3385138e-05,0.00323122165,0.000432576333,0,10,113.9257501,0,0,1,1.0,0.0,78.30880567698105,205.803,50.185491
B-1464,NC(=O)C(Cl)Cl,-0.2558,6,12.0,1.284,-0.00087161188,0.0067716564339999,0.003570955933,0,8,124.9334551,1,1,6,3.0,0.001,91.6194640734122,231.969,59.86770799999999
B-1283,CC(Cl)(Cl)[N+]([O-])=O,-1.7603,7,15.0,4.415,-0.0030388876549999,0.010134167619,-0.0057083605519999,0,11,140.93286,1,2,6,3.0,0.001,100.1606435421578,236.067,65.37713000000001
H-496,CC(Cl)(Cl)Cl,-2.14,5,9.0,2.42,-7.674299999999999e-07,0.001777163397,0.000458695598,0,11,130.3802845,0,0,0,12.0,0.0,90.02867252663488,223.365,61.681574
A-3897,ClCC(Cl)Cl,-1.5811040630000002,5,9.0,2.064,-5.1257e-08,0.002296149752,0.0004623094569999,0,10,130.3802845,0,0,2,1.0,-0.001,86.46983586018509,230.238,63.192067
B-3939,OCC(Cl)(Cl)Cl,-0.2537,6,12.0,3.635,-0.001592305216,0.006963948324,-0.004253669164,0,11,146.3796895,0,1,4,3.0,0.0,98.84336658085256,236.195,67.929589
A-1533,OC(O)C(Cl)(Cl)Cl,1.037167298,7,15.0,0.25,-0.001011518128,0.01036703257,0.007244685982,0,12,162.3790944,0,2,6,3.0,-0.001,107.23879514305678,263.536,73.294146
A-1495,CC(F)(F)Cl,-1.723390854,5,9.0,2.733,-0.000151158601,0.004943331693,0.001133087151,0,10,97.4712157,0,0,0,4.0,0.0,66.6202999237189,186.299,38.936313
A-4145,FC(F)CCl,-0.922963208,5,9.0,3.462,-0.000219347688,0.0056549716429999,0.00016691236,0,10,97.4712157,0,0,2,2.0,0.0,63.73077541796451,192.259,39.574788
B-3723,OC(=O)CCl,0.9277,5,9.0,2.412,-0.001666361106,0.0118917714149999,0.002361387698,0,6,91.4732192,0,2,7,4.0,0.0,71.63285948255316,193.426,42.771768
D-1366,FC=C,-0.276,3,3.0,0.595,-3.2386423e-05,0.001391831292,0.001209935937,0,4,43.019875,0,0,3,1.0,0.0,40.248545071101496,145.179,22.554693
A-369,CC(F)(F)F,-2.043101387,5,9.0,0.371,-0.0001902381569999,0.006388311119,0.003659935683,0,11,81.0166813,0,0,0,13.0,0.001,54.94277951497037,173.12900000000002,28.395589
A-1885,OCC(F)(F)F,0.999830658,6,12.0,0.99,-0.00040910515,0.012159729,0.007726371838,0,12,97.0160862,0,1,2,1.0,0.0,60.61390560080862,185.971,32.295094
B-838,OC(=O)CF,1.1077,5,9.0,1.266,-0.001529466271,0.012451375503,0.006404869735,0,8,75.0186848,0,2,3,2.0,0.0,54.36313648226455,170.623,30.67155
G-365,CC#N,0.26,3,4.0,0.072,-1.307144e-06,-0.004110764187,-0.004080336762,0,2,38.028175,1,0,3,3.0,-0.001,44.29649210568068,150.94,25.734424
A-3264,[nH]1cncn1,1.005827448,5,9.0,1.217,-2.847542e-06,-0.0058584012749999,-0.0063150788299999,0,3,66.0415814,3,0,6,5.0,0.0,57.45358031092002,167.14700000000002,37.985327000000005
B-3065,NC(=S)NC#N,-0.0049,6,12.0,5.746,-0.000190926741,-0.002984449987,-0.010569447954,0,4,98.1063688,3,0,9,5.0,0.0,83.75104816969059,219.634,58.192725
A-371,CN=C=S,-0.98322259,4,6.0,2.299,-1.026047e-06,0.001383049252,0.000777890939,0,3,70.0929624,1,0,6,4.0,0.0,63.09914029413885,191.394,46.042776
G-668,C=C,-0.4,2,1.0,0.0,-0.0,-0.0018842500469999,-0.001472590334,0,0,24.0214718,0,0,3,2.0,0.001,34.24150993105525,131.391,20.129013
E-100,BrCCBr,-1.68,4,6.0,0.0,-2.5645302e-05,-0.002378338501,-0.002344521803,0,6,183.8285274,0,0,3,1.0,0.001,72.62606884120508,219.83900000000003,61.643959
B-511,ClCCBr,-1.3177,4,6.0,1.93,-1.9242231e-05,-0.0004981464989999,-0.000456049287,0,6,139.3779372,0,0,3,1.0,-0.001,70.03905472453681,210.428,54.98986899999999
B-4642,NC(=O)CBr,0.0643,5,9.0,2.922,-0.001670540864,0.002872861389,-0.005299525094,0,6,133.9311077,1,1,3,4.0,0.0,71.11693594223942,202.183,51.197336
B-3835,CC(Cl)Cl,-1.2913,4,6.0,1.963,-3.65366e-07,0.000919787042,0.000804283307,0,7,94.927347,0,0,2,1.0,-0.001,69.79590780653899,199.23,49.375475
H-197,ClCCCl,-1.08,4,6.0,0.001,-4.2778e-08,0.0013828350459999,0.001528520718,0,6,94.927347,0,0,3,1.0,0.0,67.4722815654859,201.064,48.355312
B-1139,ClCOCCl,-0.7181,5,9.0,0.86,-5.676581e-06,0.001065011864,-0.0007806220739999,0,8,110.9267519,0,1,4,2.0,0.0,78.39567477389356,222.689,53.601483
B-1498,FCCCl,-0.5291,4,6.0,1.486,-5.3266856e-05,0.003038605848,0.002192955933,0,6,78.4728125,0,0,3,2.0,0.0,56.60740845728214,179.514,36.566996
B-4641,NC(=O)CCl,-0.0166,5,9.0,4.691,-0.001760178624,0.004714265374,-0.004489574235,0,6,89.4805175,1,1,3,2.0,0.0,68.49949369435957,192.825,44.466884
B-1302,CC(Cl)[N+]([O-])=O,-1.4374,6,12.0,6.751,-0.004610323896,0.011844976852,-0.008093859708,0,7,105.47992240000002,1,2,6,4.0,0.0,81.69496336387803,217.27,50.569149
A-1014,CC(F)F,-1.314722844,4,6.0,0.425,-0.000106691432,0.004218780327,0.002850690568,0,7,62.0182781,0,0,2,1.0,0.0,47.299548301257325,159.35299999999998,25.589959
B-1449,NC(=O)CF,1.1132,5,9.0,2.552,-0.001455216368,0.006323519527,-0.0005843701999999,0,6,73.02598309999999,1,1,3,2.0,0.0,57.76937210193282,171.85299999999998,32.662327000000005
B-1383,ICCI,-3.2196,4,6.0,0.0,-8.879605000000001e-06,-0.006821545222,-0.006499136904,0,6,277.83041560000004,0,0,3,1.0,0.0,89.64362131236538,247.991,84.557108
B-4044,[O-][N+](=O)OCCO[N+]([O-])=O,-1.3495,10,24.0,0.557,-0.005020727161,0.0250333730129999,0.0058620331559999,0,12,148.0313077,2,6,11,8.0,0.0,100.29304107006703,262.411,62.811934
B-953,NC(N)=NC#N,-0.3087,6,12.0,4.146,-7.225639e-06,-0.008467305728,-0.013164701625,0,4,80.04828459999999,4,0,7,5.0,0.0,74.3414747516493,199.48,45.039968
A-3437,Nc1[nH]ncn1,0.832692995,6,12.0,2.173,-7.398098e-06,-0.008429148315,-0.012578599651,0,4,80.04828459999999,4,0,8,3.0,0.0,72.40929181005583,204.235,45.097298
A-1003,NC(=O)N=NC(N)=O,-3.54624346,8,18.0,1.187,-0.001890861261,0.00736053816,0.001002638219,0,4,112.0470945,4,2,14,8.0,0.0,98.549519770153,239.901,55.709872
B-176,C1CO1,1.356,3,3.0,1.4480000000000002,-4.28901e-07,0.002489239717,0.002898575985,0,3,40.0208767,0,1,2,2.0,0.0,35.47962572659197,143.989,23.187438
B-4262,CC=O,1.3561,3,3.0,1.205,-0.000273263924,0.004608319872,0.003588728102,0,2,40.0208767,0,1,5,3.0,0.0,41.01967912144202,148.013,24.296624
A-3375,CC(O)=O,1.001717808,4,6.0,1.015,-0.0012895157309999,0.00919427757,0.004771606791,0,4,56.0202816,0,2,5,3.0,0.0,48.8120288270766,157.66899999999998,27.721283000000003
A-3869,COC=O,0.6985937790000001,4,6.0,0.626,-6.782041199999999e-05,0.0054840081409999,0.005499293818,0,4,56.0202816,0,2,6,4.0,-0.001,55.46819711183283,187.226,29.966464
A-2411,OC(=O)CS,-1.964349215,5,9.0,9.706,-0.006362007144,0.013346860714,-0.032923748655,0,4,88.0850691,0,2,8,5.0,0.0,66.51156232129904,198.626,47.790603
B-255,CC(=O)OO,1.1189,5,9.0,4.03,-0.0034608973479999,0.0121490050759999,-0.011292644092,0,6,72.01968659999999,0,3,5,3.0,0.0,57.88726288615997,177.455,32.93567
A-5260,OCC(O)=O,0.596016326,5,9.0,0.612,-0.001078743337,0.010667309952,0.007534201661,0,4,72.01968659999999,0,3,9,3.0,0.0,59.0452379090445,209.73,34.081590000000006
B-4382,O=[S]1OCCO1,0.2214,6,12.0,5.523,-0.0065873278799999,0.01019999572,-0.018645922754,0,6,104.084474,0,3,7,5.0,0.0,73.35075329907635,201.416,53.625677
B-3828,CCBr,-1.086,3,3.0,0.83,-1.766325e-06,-0.002140048597,-0.002060962742,0,4,103.9249996,0,0,3,2.0,0.0,53.85195387189508,176.112,41.138851
B-1120,OCCBr,0.9032,4,6.0,2.062,-0.001006206897,0.00441108774,0.0001294852,0,4,119.9244045,0,1,6,4.0,0.0,59.64603098085326,190.084,44.976189
A-3614,[O-][S](=O)(=O)CCBr,0.332748699,7,15.0,4.333,-0.016175827959,0.014315084335,-0.081472480461,0,12,183.9880018,0,3,3,1.0,0.001,92.89177055301757,254.432,78.884331
A-3515,CCCl,-1.050748809,3,3.0,2.27,-4.6632200000000006e-07,-0.000265398669,-0.000487252001,0,4,59.474409400000006,0,0,3,1.0,0.001,51.18652709034623,166.512,34.473903
A-4511,OCCCl,1.094128597,4,6.0,3.776,-0.001193944039,0.00628451465,0.000296125575,0,4,75.47381429999999,0,1,6,3.0,0.001,57.02198086321164,180.787,38.2691
A-4620,NCC(F)F,0.522530377,5,9.0,1.475,-9.4154492e-05,0.00204828341,-0.000406016476,0,7,76.0249813,1,0,5,2.0,0.0,55.99229418175682,175.94,31.037137
B-927,OCCF,1.1934,4,6.0,1.152,-0.000727149134,0.00789366248,0.004787796827,0,4,59.0192799,0,1,6,3.0,0.0,46.396894177222215,159.866,26.445398
B-3831,CCI,-1.6009,3,3.0,1.111,-2.2126866e-05,-0.004352805938,-0.004446730207,0,4,150.9259437,0,0,3,2.0,0.0,62.3849475373535,190.235,52.51204499999999
A-4528,C1CN1,1.365835212,3,3.0,0.0069999999999999,-5.55636e-07,-0.0034894535119999,-0.0033950431679999,0,3,38.028175,1,0,1,1.0,0.0,36.66183363513882,145.148,24.898889
B-1465,CN(N=O)C(N)=O,-0.8548,7,15.0,2.248,-0.003221569877,0.0091825985019999,-0.0042884967109999,0,5,98.0403913,3,2,9,3.0,0.0,86.15254809397256,222.976,50.097308
B-1132,NC(=S)NC(N)=S,-1.6996,7,15.0,0.992,-1.1436181e-05,0.000107517807,-0.000316707667,0,6,130.17115619999998,3,0,8,7.0,0.0,104.71385799815408,243.776,78.06845200000001
B-2267,CN(C(/N)=N/[N+]([O-])=O)[N+]([O-])=O,-0.6104,11,27.0,2.8480000000000003,-0.004883008308,0.013434145815,-0.00749667345,0,10,158.0526075,5,4,17,8.0,0.0,118.6622768922232,309.43,73.03078000000001
B-97,CC(N)=O,1.5808,4,6.0,0.5660000000000001,-0.000747542208,0.003095633574,0.000903097912,0,4,54.0275799,1,1,3,3.0,0.0,52.29527446876739,159.502,29.663484000000004
A-4240,C/C=N/O,0.495819462,4,6.0,1.54,-0.000778495259,0.004539192743,-0.000367423445,0,3,54.0275799,1,1,6,3.0,0.0,50.60269148826214,168.174,31.419357
A-5340,CNC=O,1.2286477340000002,4,6.0,1.025,-0.0006482806109999,0.003973718003,0.000979001152,0,3,54.0275799,1,1,6,3.0,0.001,50.54257910937053,167.295,31.086245
G-875,CCN(=O)=O,-0.22,5,9.0,1.494,-0.003039524486,0.010162151473,-0.00198555173,0,5,70.0269849,1,2,7,3.0,0.0,58.169644130616405,183.2,36.475567
B-4212,COC(N)=O,0.964,5,9.0,2.411,-0.001025980351,0.00494193242,-0.001282260546,0,4,70.0269849,1,2,9,5.0,0.0,64.97050123432443,197.598,35.572405
C-9,NCC(O)=O,0.92,5,9.0,1.855,-0.00239804886,0.007655148619,-0.001943985546,0,5,70.0269849,1,2,7,4.0,-0.001,57.23355866106026,179.15900000000002,34.266971000000005
A-4301,CC(N)=S,0.336339534,4,6.0,4.203,-5.6844476e-05,-0.0001594620379999,-0.004709958321,0,3,70.0929624,1,0,7,5.0,0.0,70.67109826654865,188.092,44.58968
A-385,CNC([S-])=S,0.747325108,5,9.0,5.856,-0.001667154406,0.004452200701,-0.084264445854,0,5,102.1577498,1,0,7,4.0,0.0,83.58895740207643,226.561,68.683
A-516,CC,-2.6913820060000004,2,1.0,0.0,-0.0,-0.0018842820319999,-0.001472622319,0,0,24.0214718,0,0,3,2.0,-0.001,34.24326676865157,131.394,20.129013
B-2369,O[P](O)(=O)CCCl,0.8401,7,15.0,5.403,-0.019760083117,0.014256994309,-0.015404908957,0,9,138.4463861,0,3,7,3.0,0.0,93.8007157161144,233.756,70.729534
B-4265,CN(C)N=O,1.1303,5,9.0,1.147,-0.001027898648,0.003772242676,-0.002908952397,0,4,68.03428309999998,2,1,5,6.0,0.001,64.26805665573568,183.248,37.257678000000006
A-4499,CNC(N)=O,1.130281439,5,9.0,1.755,-0.000866026924,0.001116866278,-0.004639295308,0,4,68.03428309999998,2,1,6,3.0,0.0,60.96228227509511,182.789,37.467199
B-1575,NC(=O)NCO,-0.3463,6,12.0,3.919,-0.001268261209,0.007407248034,-0.002271996148,0,4,84.03368809999999,2,2,8,4.0,0.0,66.46074049426768,196.18400000000003,41.450626
B-1903,N\C(NO)=C(/N)N=O,-0.7773,8,18.0,2.455,-0.00411099777,0.00459438962,-0.02031613112,0,6,112.0470945,4,2,10,7.0,0.0,94.4489645022102,229.659,55.219141
B-825,NC(=S)NNC(N)=S,-1.7965,8,18.0,0.074,-8.9652515e-05,0.0031623972879999,0.001585711244,0,4,144.1778595,4,0,10,7.0,0.0,125.25723088891328,291.618,85.542738
A-356,CCO,1.233668218,3,3.0,1.202,-0.000273938922,0.004608985886,0.00358913187,0,2,40.0208767,0,1,5,4.0,-0.001,41.01661934722425,148.006,24.296252
A-960,COC,0.88436592,3,3.0,0.0069999999999999,-7.7766065e-05,-0.00148420197,-0.002364304935,0,2,40.0208767,0,1,4,2.0,0.001,43.715814840339135,152.52200000000002,25.494451
B-520,OCCO,1.2071,4,6.0,0.0,-0.001000467494,0.011076151678,0.007089991028,0,4,56.0202816,0,2,6,4.0,0.0,46.78789657348607,161.575,27.993015000000003
C-1083,C[S](C)(=O)=O,0.2,5,9.0,0.525,-0.010714242273,0.0099439842209999,-0.032226399095,0,6,88.0850691,0,2,6,4.0,-0.001,70.58765573507517,189.122,49.848547
A-2352,CO[S](C)(=O)=O,-0.041921413,6,12.0,0.716,-0.008239846786,0.009126520566,-0.019106040041,0,7,104.084474,0,3,8,5.0,0.0,80.97002143631501,228.324,56.338418
B-525,OCC[S](O)(=O)=O,0.8992,7,15.0,1.124,-0.013141255526,0.020317925506,-0.029345876131,0,9,120.08387890000002,0,4,5,3.0,-0.001,79.68402657250783,218.19,58.99289399999999
B-132,C[S](C)=O,1.1072,4,6.0,4.666,-0.00435238097,0.006360221389,-0.014384996621,0,4,72.08566409999999,0,1,4,3.0,0.0,70.0083408369464,185.043,44.881726
A-4519,OCCS,1.107148825,4,6.0,2.424,-0.001114644755,0.008603394512,0.003687721812,0,3,72.08566409999999,0,1,5,5.0,0.0,58.982160154324255,185.677,42.945905
A-285,CCS,-0.84591656,3,3.0,3.247,-6.3445735e-05,0.00202607799,5.5209986e-05,0,3,56.08625920000001,0,0,2,2.0,0.0,53.62926256253136,172.14,39.312506
A-384,CSC,-0.931218902,3,3.0,2.758,-0.000221144131,0.001315246342,-0.001239135197,0,3,56.08625920000001,0,0,0,1.0,0.0,56.53450927000412,163.951,38.346479
B-4269,CSSC,-1.4969,4,6.0,2.521,-7.3316766e-05,0.00284897146,0.002072346184,0,4,88.15104659999999,0,0,6,4.0,0.0,81.84100245212497,238.988,60.432824
B-1278,C[Se]C,-0.6502,3,3.0,3.167,-0.000371059737,-0.0012585296219999,-0.003366932731,0,3,102.9808604,0,0,1,2.0,0.0,57.264095102882536,171.37900000000002,45.299069
B-171,CCN,1.346,3,3.0,0.073,-1.3074000000000002e-06,-0.004110745905,-0.004080393423,0,2,38.028175,1,0,3,3.0,-0.001,44.29782576712453,150.941,25.73441
B-965,CN=C(N)N,-1.6135,5,9.0,1.548,-3.964659e-06,-0.006135158464,-0.008807486649,0,3,66.0415814,3,0,7,4.0,0.0,64.41963846969965,184.296,39.502675
A-3795,CNC(=S)NN,-0.465572855,6,12.0,2.069,-0.000164765698,-0.001905902004,-0.005173624113,0,5,98.1063688,3,0,6,4.0,0.0,83.682671102351,227.124,59.168092
A-3007,NCCO,1.214072532,4,6.0,1.791,-0.00033833364,0.0024338305179999,-0.000533698722,0,3,54.0275799,1,1,7,5.0,-0.001,49.52711533368564,164.18,29.618114
B-524,NCC[S](O)(=O)=O,-0.1906,7,15.0,2.17,-0.011557115388,0.011873448154,-0.03512039796,0,9,118.09117720000002,1,3,6,5.0,0.0,83.74662889853995,222.269,60.440757
B-2141,C[S](=O)(=O)N[S](C)(=O)=O,0.0402,9,21.0,5.702999999999999,-0.007837589199,0.016196201641,-0.023015267831,0,11,166.1553695,1,4,10,7.0,-0.001,134.08040434043056,266.41,86.711613
B-1122,CNNC,1.2211,4,6.0,0.003,-1.94152e-06,-0.0035595370289999,-0.004843573443,0,2,52.0348782,2,0,6,4.0,0.0,54.61274337962141,173.761,34.265896000000005
B-61,CN(C)N,1.2211,4,6.0,0.432,-6.39e-10,-0.0044589116279999,-0.004047490261,0,4,52.0348782,2,0,0,5.0,0.001,60.25584114327496,157.129,31.022618
B-517,NCCN,1.2211,4,6.0,0.005,-3.860557e-06,-0.0062504158849999,-0.007534074215,0,2,52.0348782,2,0,6,4.0,0.001,52.65022319202753,166.76,31.170083
B-585,NNCCO,1.1186,5,9.0,1.213,-0.00116852733,0.001452271126,-0.005288924642,0,2,68.03428309999998,2,1,6,4.0,0.0,58.81980064418067,183.104,36.627206
B-2351,CO[P](N)(=O)SC,0.8504,7,15.0,6.7,-0.001363378326,0.006546484809,-0.009236211173,0,5,133.0655343,1,2,11,5.0,-0.001,108.81929160328798,257.255,78.587532
B-1589,C[Si](C)(O)O,1.0354,5,9.0,0.1119999999999999,-0.001173388923,0.0091252189839999,0.0062271559069999,0,2,84.1057804,0,2,10,5.0,0.0,98.08950611073128,230.616,60.624851
B-1933,CC(O)([P](O)(O)=O)[P](O)(O)=O,0.5249,11,27.0,9.588,-0.146480335244,0.025327940084,-0.19808023114,0,13,197.9648302,0,7,7,4.0,0.0,133.61990491541874,251.347,95.471936
B-4407,FC(F)(F)C(Cl)Br,-1.7043,7,15.0,2.517,-0.000240923069,0.006266888183,0.00140107433,0,16,196.3731466,0,0,0,14.0,0.001,91.25099426677912,237.146,63.42098299999999
D-1573,FC(Br)C(F)(F)F,-1.901,7,15.0,1.443,-0.000295885598,0.007924128952,0.002329886635,0,16,179.91861219999998,0,0,0,12.0,0.0,80.14200276280353,221.054,51.899385
B-901,FC(F)(F)C(Cl)Cl,-1.8623,7,15.0,2.633,-0.000237591724,0.007931312559,0.0031407859529999,0,16,151.9225564,0,0,0,8.0,0.0,88.71899579582308,229.834,56.948698
E-140,ClC=C(Cl)Cl,-1.96,5,9.0,2.072,-5.1154e-08,0.002297691582,0.0004616198429999,0,10,130.3802845,0,0,2,1.0,0.0,86.45376494104902,230.234,63.192292
A-1066,ClC(Cl)(Cl)C=O,-0.691340871,6,12.0,3.633,-0.001594178238,0.006965618595,-0.004243890223,0,11,146.3796895,0,1,4,2.0,0.001,98.84181756008525,236.196,67.929709
D-652,OC(=O)C(Cl)(Cl)Cl,0.519,7,15.0,0.244,-0.001016353553,0.010418886865,0.0072955776139999,0,12,162.3790944,0,2,6,3.0,-0.001,107.2612235987221,263.732,73.293871
B-3841,ClC(Cl)C(Cl)(Cl)Cl,-2.6248,7,15.0,1.357,-1.6387e-08,0.003498648631,0.001286339034,0,16,201.2861597,0,0,0,25.0,0.001,123.72826147958492,274.11400000000003,91.222731
B-199,OC(=O)C(F)(F)Cl,0.8845,7,15.0,1.661,-0.001223210356,0.01430993988,0.0089841012329999,0,12,129.4700255,0,2,6,3.0,0.0,84.95234698988227,237.146,49.719174
B-1939,FC(Cl)C(F)(F)F,-1.959,7,15.0,2.719,-0.000274521434,0.009678334569,0.004088653395,0,16,135.468022,0,0,0,1.0,0.0,77.67511077301431,213.488,45.349689
A-4549,OC(=O)C(F)(F)F,0.943011346,7,15.0,0.7,-0.001270654617,0.016508004045,0.011614049537,0,12,113.0154911,0,2,6,3.0,0.001,73.71409506733426,219.528,38.051298
A-743,FC(F)C(F)(F)F,-1.416495791,7,15.0,1.085,-0.000262076176,0.011547865202,0.006661861049,0,16,119.0134876,0,0,0,6.0,0.001,66.61729562738446,195.633,33.719512
A-5445,FC(F)(F)[S](=O)(=O)N[S](=O)(=O)C(F)(F)F,0.454144176,15,39.0,5.812,-0.021500493718,0.027135323404,-0.19105587083,0,32,280.1457885,1,4,0,13.0,0.0,156.59378652325086,314.394,108.757667