Name,SMILES,Solubility,AtomNum,DegFreedom,Dipole,Ghb,Gsasa,Gsolv,HNum,LP,MolWt,NNum,ONum,PiCenters,PiDeloc,Quadrupole,Volume,SASA,Polarizabilty
B-4122,Clc1ccc(cc1)c2ccc(Cl)c(Cl)c2,-6.5541,13,39.0,1.915,-1.72568e-07,-9.5651598e-05,-0.004573929267,0,9,250.4876435,0,0,6,10.0,-0.001,193.95337487944468,387.296,150.831127
B-4121,Clc1ccc(cc1Cl)c2ccccc2Cl,-6.287000000000001,15,39.0,2.938,-2.48046e-07,-0.000360321151,-0.004062856157,0,9,250.4876435,0,0,6,10.0,0.0,193.8720483404213,369.756,150.994819
B-4118,Clc1cccc(c1Cl)c2ccccc2Cl,-5.944,15,39.0,4.747,-4.4938e-07,-0.000719855591,-0.012519687186,0,8,250.4876435,0,0,4,9.0,-0.001,195.0156199981564,347.227,151.816974
E-183,c1ccccc1c2c(Cl)cc(Cl)c(Cl)c2,-6.27,13,39.0,8.18,-5.430389999999999e-07,-0.000604386396,-0.017706383434,0,8,250.4876435,0,0,5,10.0,0.0,195.3395497553284,356.972,151.877121
B-3000,Clc1ccc(c2ccccc2)c(Cl)c1Cl,-6.1799,14,39.0,3.513,-4.29182e-07,-0.000864508319,-0.006844576217,0,10,250.4876435,0,0,4,9.0,0.0,194.1267614559848,356.019,151.288244
B-4108,Clc1ccc(c(Cl)c1)c2ccccc2Cl,-6.4902,15,39.0,6.952000000000001,-5.52267e-07,-0.000379651436,-0.014758235597,0,8,250.4876435,0,0,4,9.0,0.0,195.0826163223401,355.06800000000004,151.83272
E-1064,c1cccc(Cl)c1c2c(Cl)ccc(Cl)c2,-6.02,13,39.0,3.365,-3.06943e-07,-0.00049633092,-0.00410915906,0,9,250.4876435,0,0,6,9.0,0.0,193.9255200847384,352.126,151.462126
B-4119,Clc1cccc(c1)c2cc(Cl)ccc2Cl,-6.0077,14,39.0,1.694,-3.64848e-07,2.2631171e-05,-0.003283868138,0,9,250.4876435,0,0,5,8.0,0.0,194.0011806213764,376.831,150.033924
C-619,ClC1=CC=C(C=C1)C2=C(Cl)C=C(Cl)C=C2,-6.0,13,39.0,3.275,-4.91429e-07,-0.00015930948,-0.012271172894,0,8,250.4876435,0,0,5,9.0,0.0,194.8440851259608,367.698,151.788479
G-167,Clc1ccc(cc1)c2cc(Cl)ccc2Cl ,-6.27,14,39.0,4.375,-4.63213e-07,-0.0001121224719999,-0.011613941936,0,8,250.4876435,0,0,4,8.0,0.0,194.9534135908448,367.661,151.706165
B-2846,Clc1cccc(c1)c2c(Cl)cccc2Cl,-6.8245,14,39.0,2.276,-3.88239e-07,-0.00034345561,-0.003569345025,0,9,250.4876435,0,0,4,8.0,0.0,194.2141644793935,358.37699999999995,150.658414
B-4116,Clc1ccccc1c2c(Cl)cccc2Cl,-5.9003,14,39.0,0.979,-2.40292e-07,-0.00078716391,-0.002968190713,0,9,250.4876435,0,0,5,9.0,0.0,193.99284137379445,354.749,151.611126
B-2828,Clc1cc(Cl)cc(c1)c2ccccc2Cl,-6.2999,15,39.0,6.4910000000000005,-4.7613e-07,-0.000482805846,-0.012963333276,0,10,250.4876435,0,0,3,8.0,0.0,195.1978512531388,360.096,151.81341799999998
C-641,ClC1=CC(=C(C(=C1)Cl)C2=CC=CC=C2)Cl,-6.06,15,39.0,4.1160000000000005,-3.27767e-07,-6.4222508e-05,-0.004092008308,0,9,250.4876435,0,0,6,10.0,0.0,193.75033544128576,366.725,150.16324
G-152,Clc1ccc(cc1)c2cccc(Cl)c2Cl ,-6.29,14,39.0,6.039,-6.344440000000001e-07,-0.000527286635,-0.014790838096,0,8,250.4876435,0,0,5,9.0,0.0,195.0106172091577,359.849,151.754267
B-4117,Clc1ccc(cc1)c2c(Cl)cccc2Cl,-6.2095,14,39.0,3.0410000000000004,-2.6156e-07,-0.000260863544,-0.003380217049,0,9,250.4876435,0,0,5,9.0,0.0,194.0041443253407,360.006,151.56890900000002
C-648,ClC1=CC=C(Cl)C(=C1Cl)C2=CC=CC=C2,-6.29,15,39.0,4.496,-5.02641e-07,-0.000643099206,-0.008223976756,0,10,250.4876435,0,0,4,8.0,0.0,194.1463637965901,350.014,151.262831
C-1328,ClC1=C(Cl)C(=CC(=C1)OC2=CC=CC=C2)Cl,-6.77,16,42.0,2.313,-0.0001117378679999,0.002056382437,-0.001986100148,0,11,266.4870485,0,1,4,9.0,-0.001,204.30360377116835,361.997,155.91276100000002
B-2653,Clc1ccc(Oc2cc(Cl)cc(Cl)c2)cc1,-5.5201,14,42.0,2.755,-0.000180873712,0.0033198557179999,-0.0009274822809999,0,10,266.4870485,0,1,6,10.0,0.0,204.144845141494,384.304,154.901388
B-3084,Clc1ccc(Oc2ccc(Cl)c(Cl)c2)cc1,-5.6603,14,42.0,0.8640000000000001,-0.000105736892,0.002695049019,-0.000990895102,0,10,266.4870485,0,1,4,8.0,0.0,204.47525701253016,378.81,155.777174
B-3038,Clc1ccc(Oc2ccc(Cl)cc2Cl)cc1,-6.2196,14,42.0,1.425,-0.000115403587,0.00194195595,-0.001213764921,0,11,266.4870485,0,1,7,9.0,0.0,203.3825302863459,394.693,153.267065
B-3113,Clc1cccc(Oc2ccc(Cl)c(Cl)c2)c1,-5.437,14,42.0,0.99,-0.00010301366,0.002564251432,-0.001015695068,0,10,266.4870485,0,1,4,9.0,0.001,204.56216391468223,379.365,155.85593300000002
C-2076,ClC1=CC=C(OC2=C(Cl)C=CC=C2Cl)C=C1,-5.91,15,42.0,1.547,-7.048620299999999e-05,0.0008920583349999,-0.002490384039,0,11,266.4870485,0,1,6,8.0,0.0,203.61217772261088,388.098,153.93360800000002
B-3151,Clc1ccc(Oc2ccccc2Cl)c(Cl)c1,-4.9499,14,42.0,3.029,-9.0620392e-05,0.001831493932,-0.003446661956,0,11,266.4870485,0,1,4,8.0,0.001,204.30370707821632,384.232,154.901122
C-2081,ClC1=CC(=C(OC2=CC=CC=C2)C(=C1)Cl)Cl,-6.11,15,42.0,7.404,-7.1207499e-05,0.000695747627,-0.009529873164,0,12,266.4870485,0,1,4,9.0,0.0,203.3713210089684,380.574,155.6571
C-1334,ClC1=CC(=C(OC2=CC=CC=C2)C=C1Cl)Cl,-6.58,15,42.0,2.111,-8.6008257e-05,0.001598565393,-0.002221690793,0,11,266.4870485,0,1,4,8.0,0.0,204.24541126946852,366.764,155.841835
B-3066,Clc1ccc(Oc2ccccc2Cl)cc1Cl,-5.199,15,42.0,0.441,-9.3696768e-05,0.001712352376,-0.002231150282,0,11,266.4870485,0,1,3,8.0,0.0,204.1751143401405,366.427,155.722485
C-2086,ClC1=CC=C(Cl)C(=C1Cl)OC2=CC=CC=C2,-5.95,16,42.0,1.669,-8.616991099999999e-05,0.0004498973049999,-0.003143932429,0,11,266.4870485,0,1,5,8.0,0.0,202.84538203791763,379.096,155.73905200000002
A-1940,Oc1cc(Cl)ccc1Oc2ccc(Cl)cc2Cl,-4.46171607,16,45.0,8.648,-0.003001366685,0.008802242373,-0.017234957452,0,12,282.4864534,0,2,7,9.0,0.001,211.5748218245968,403.944,158.675837
B-3187,FC(F)(F)c1nc(Cl)sc1C(=O)OCc2ccccc2,-5.8085,20,54.0,7.426,-0.001357222407,0.008138095665,-0.01104719966,0,19,314.64727830000004,1,2,8,11.0,0.0,226.2491249014547,435.695,166.39378100000002
B-4017,Clc1cccc2Oc3ccccc3Oc12,-5.7196,15,39.0,1.148,-0.0002385099959999,0.000150189397,-0.003215457838,0,7,211.5805782,0,2,5,9.0,0.0,168.30304201016574,327.994,131.292517
B-4018,Clc1ccc2Oc3ccccc3Oc2c1,-5.8359,15,39.0,2.04,-0.000307832888,0.00148944081,-0.001424975925,0,7,211.5805782,0,2,6,10.0,0.0,168.1989856866729,333.48900000000003,131.001541
B-2062,[O-][N+](=O)c1cc2cccnc2c3ncccc13,-3.9172,17,45.0,5.871,-0.003457392724,0.004001614802,-0.01475065394,0,6,218.1477503,3,2,8,12.0,0.0,178.2794838646534,333.747,136.439326
A-889,O=C1NC(=O)c2cccc3cccc1c23,-4.692831503,15,39.0,11.594,-0.004287249918,0.0062157215689999,-0.033453518503,0,4,190.1343438,1,2,12,12.0,0.0,156.8597571846851,304.45,122.516078
B-1435,Oc1ccc2N=C3C=CC(=O)C=C3Oc2c1,-1.0277,16,42.0,3.042,-0.003842524459,0.010305405255,-0.010901666225,0,7,206.1337488,1,3,11,11.0,0.0,166.9743931460572,330.177,126.371773
F-81,O=C1C=CC2=NC3=C(C=CC=C3)SC2=C1,-3.72,14,39.0,8.75,-0.002593291833,0.00378712674,-0.0143083739099999,0,5,206.1997263,1,1,9,11.0,0.001,170.9464885648025,328.907,137.637247
B-3579,c1cc2cccc3C=Cc(c1)c23,-3.9756,12,30.0,0.295,-2.28144e-07,-0.003852838208,-0.003834462806,0,0,144.12883080000003,0,0,10,10.0,0.0,133.18155500015922,268.664,106.133273
H-102,BrC1=CC=C(C2=CC=C(Br)C=C2)C=C1,-7.74,13,36.0,0.0,-0.000169054197,-0.004698895415,-0.007515529829,0,6,303.9358864,0,0,6,10.0,0.0,181.52799913480567,377.877,149.73498500000002
B-2041,Brc1ccc2Nc3ccccc3Sc2c1,-6.1119,14,39.0,7.691,-0.000223418989,-0.003030288867,-0.010711788775,0,5,270.1038492,1,0,8,11.0,0.0,184.05031371931483,355.401,155.10494
B-4089,Clc1cccc(c1)c2ccccc2Cl,-5.5851,14,36.0,2.526,-3.974710000000001e-07,-0.001493912077,-0.003413650368,0,6,215.034706,0,0,5,7.0,0.0,176.26666178988287,340.056,135.906164
B-4096,Clc1ccc(c(Cl)c1)c2ccccc2,-5.2878,14,36.0,8.56,-7.437739999999999e-07,-0.00164362399,-0.0181029088929999,0,5,215.034706,0,0,5,9.0,0.0,177.21733374073528,332.639,137.106134
B-4099,Clc1ccc(Cl)c(c1)c2ccccc2,-5.2993,14,36.0,0.845,-1.82939e-07,-0.00117182105,-0.0030090311199999,0,6,215.034706,0,0,4,10.0,0.0,177.5320588752953,338.547,132.630537
E-182,c1ccccc1c2c(Cl)cccc2Cl,-5.21,14,36.0,6.21,-9.39829e-07,-0.001842186196,-0.01483265974,0,5,215.034706,0,0,6,9.0,0.0,177.6454838532529,320.51,136.597193
B-4100,Clc1ccc(cc1)c2ccccc2Cl,-5.2803,14,36.0,8.555,-7.438160000000001e-07,-0.001643524608,-0.01808727982,0,5,215.034706,0,0,5,9.0,0.0,177.06622119994893,332.639,137.104967
B-4073,Clc1cccc(c1)c2cccc(Cl)c2,-5.7983,13,36.0,0.012,-5.06972e-07,-0.001180315765,-0.004070146029,0,6,215.034706,0,0,4,8.0,0.0,176.48615239334427,360.126,134.610038
B-4074,Clc1ccc(cc1)c2ccc(Cl)cc2,-6.5561,13,36.0,0.001,-1.62514e-07,-0.0011968328759999,-0.003487519506,0,6,215.034706,0,0,7,9.0,-0.001,176.26976365341253,360.006,136.58077
B-1948,Clc1ccc(cc1)c2cccc(Cl)c2,-6.4001,13,36.0,0.885,-6.73631e-07,-0.001181504097,-0.003730087025,0,6,215.034706,0,0,6,9.0,0.0,176.93145502738457,361.822,132.867084
B-4083,Clc1ccccc1c2ccccc2Cl,-5.0813,14,36.0,0.003,-3.41823e-07,-0.001750108177,-0.002326488828,0,6,215.034706,0,0,6,7.0,0.0,176.1510797879202,324.099,136.914429
B-4081,Clc1ccc(cc1Cl)c2ccccc2,-6.3899,14,36.0,2.033,-1.66952e-07,-0.0015249176259999,-0.004024602286,0,6,215.034706,0,0,4,9.0,-0.001,177.6058764919527,333.65,133.78923500000002
B-4086,Clc1cccc(c2ccccc2)c1Cl,-5.3498,14,36.0,6.227,-9.03764e-07,-0.001972830504,-0.015546080898,0,6,215.034706,0,0,4,8.0,-0.001,177.63554397200053,325.648,136.30295800000002
B-2704,Clc1cccc(Cl)c1Oc2ccccc2,-5.0605,15,39.0,4.847,-7.5296103e-05,-0.0007522523459999,-0.0068299896869999,0,8,231.03411090000003,0,1,6,9.0,0.001,185.5288225307794,352.336,141.05297
B-1883,Clc1ccc(Oc2ccc(Cl)cc2)cc1,-4.7999,14,39.0,0.28,-0.000157831208,0.00186280207,-0.000844417969,0,7,231.03411090000003,0,1,3,8.0,-0.001,186.5683459341332,355.525,140.565807
A-2385,Clc1ccc(Oc2cccc(Cl)c2)cc1,-5.387355317000001,14,39.0,5.783,-0.000144826191,0.0016281167929999,-0.007089876659,0,7,231.03411090000003,0,1,4,8.0,0.0,186.6494793726244,346.01300000000003,140.294539
B-2274,Clc1ccc(Oc2ccccc2Cl)cc1,-5.52,14,39.0,5.926,-9.1555933e-05,0.000704872404,-0.006460505201,0,7,231.03411090000003,0,1,4,9.0,0.0,186.6306436759704,351.125,140.988218
B-2652,Clc1ccc(Cl)c(Oc2ccccc2)c1,-4.9703,15,39.0,1.234,-9.1881445e-05,0.000519622499,-0.002062622184,0,7,231.03411090000003,0,1,6,9.0,0.001,186.224928706942,341.19199999999995,140.964659
B-2931,Clc1ccc(Oc2ccccc2)c(Cl)c1,-4.6304,14,39.0,2.4290000000000003,-0.000133366164,0.001245220968,-0.002305577015,0,7,231.03411090000003,0,1,6,8.0,-0.001,186.3781256147681,353.68300000000005,140.273212
A-1707,Oc1cc(Cl)ccc1Oc2ccc(Cl)cc2,-4.239393123999999,15,42.0,6.47,-0.002373551441,0.007723523761,-0.012014939896,0,9,247.03351580000003,0,2,9,8.0,0.0,194.35856986385627,371.31,144.86223700000002
A-2073,Clc1ccc(cc1)[S](=O)(=O)c2ccc(Cl)cc2,-5.52363608,16,45.0,4.272,-0.006458262821,0.007729220516,-0.026059919032,0,10,279.0983032,0,2,9,11.0,0.0,210.7272581434764,405.413,167.62621
A-1422,Nc1cc(Cl)ccc1Oc2ccc(Cl)cc2Cl,-5.045264286,16,45.0,17.484,-8.665565e-06,-0.001522257585,-0.039587350565,0,11,280.4937517,1,1,13,13.0,0.0,215.63854338949417,451.954,163.155297
B-3395,CCOC(=O)c1nn(c2ccc(Cl)cc2Cl)c(n1)C(Cl)(Cl)Cl,-5.6516,19,60.0,21.81,-0.002327379329,0.006215091774,-0.0445271619319999,0,18,395.4124382,3,2,13,13.0,0.001,285.3835221274219,506.346,212.18232000000003
C-300,ClC1=C(Cl)C2(Cl)C3C4CC(C=C4)C3C1(Cl)C2(Cl)Cl,-6.31,16,48.0,2.381,-5.17458e-07,0.002136507747,-0.005225261312,0,19,356.8464563,0,0,5,3.0,0.001,238.09596669806928,403.549,181.055877
B-2304,ClC1(Cl)C2(Cl)C3C(CC4C3C1(Cl)C5(Cl)C4C25Cl)C=O,-7.2006,16,51.0,4.966,-1.5430287e-05,0.007938911746,-0.00720624561,0,20,372.8458612,0,1,6,5.0,0.0,236.4435155798312,405.999,186.312373
B-99,ClC1=C(Cl)C2(Cl)C3C4CC(C5OC45)C3C1(Cl)C2(Cl)Cl,-6.2908,17,51.0,1.841,-6.9213066e-05,0.004390207112,-0.001865008394,0,19,372.8458612,0,1,7,5.0,0.0,242.3483929397147,407.644,193.270126
A-1418,[O-][N+](=O)c1ccccc1c2ccc(Cl)cc2,-4.937209456000001,15,42.0,4.9,-0.003134252596,0.00688804602,-0.0101711591209999,0,7,225.5872814,1,2,11,10.0,0.0,183.6125491579737,358.413,136.054914
B-2042,Ic1ccc2Nc3ccccc3Sc2c1,-6.9278,14,39.0,7.291,-0.000209223836,-0.005069386816,-0.011387918709,0,5,317.10479330000004,1,0,9,8.0,0.0,192.4905801554951,368.336,166.648154
E-1038,c1ccc2ccc3nccnc3c2c1,-2.68,14,36.0,4.149,-8.329330000000001e-07,-0.005393027837,-0.00720602045,0,1,172.1422372,2,0,8,9.0,0.001,153.82257291179087,298.72,120.365256
C-596,C1=CC2=C(C=C1)N=C3C=CC=CC3=N2,-3.7,14,36.0,0.0,-1.195293e-06,-0.005440609396,-0.006045327087,0,2,172.1422372,2,0,6,11.0,0.0,153.34715734572157,300.182,120.498634
B-125,c1cnc2c(c1)ccc3cccnc23,-1.826,14,36.0,2.083,-2.017049e-06,-0.005637682914,-0.0070933599419999,0,2,172.1422372,2,0,5,8.0,0.0,153.9588816867043,298.307,119.014958
B-4280,c1cnc2c(c1)ccc3ncccc23,-2.6806,14,36.0,4.904,-3.188406e-06,-0.005854142785,-0.009367848883,0,2,172.1422372,2,0,5,11.0,0.0,154.3307090977261,298.404,118.710835
B-2702,Oc1ccc(c(c2ccccc2)c1[N+]([O-])=O)[N+]([O-])=O,-3.7164,19,51.0,6.915,-0.007453047854,0.017271811706,-0.033885423506,0,10,252.1392618,2,5,15,15.0,0.001,197.16552526455487,362.591,144.497655
B-2601,Oc1cc(c2ccccc2)c(cc1[N+]([O-])=O)[N+]([O-])=O,-4.4611,19,51.0,12.31,-0.007509741596,0.019679533118,-0.028939685779,0,9,252.1392618,2,5,17,15.0,0.0,204.90731616976228,387.565,145.97894399999998
C-2248,O=C1NC=NC2=C1C=N[N]2C(=O)C3=CC=CC=C3,-4.23,18,48.0,5.85,-0.002859808755,0.004477975287,-0.016359279018,0,5,232.1544535,4,2,14,11.0,0.0,190.7056277701544,348.92800000000005,142.72671200000002
B-2206,[O-][N+](=O)C(COC(=O)c1ccccc1C(=O)OCC([N+]([O-])=O)([N+]([O-])=O)[N+]([O-])=O)([N+]([O-])=O)[N+]([O-])=O,-3.5782,34,96.0,8.482000000000001,-0.013356386787,0.0524494740859999,-0.03083489083,0,32,484.1595288,6,16,35,24.0,-0.001,333.8975290609465,577.753,225.443623
C-547,O1C2=C(C=CC=C2)C3=C1C=CC=C3,-4.6,13,33.0,0.941,-0.00013318695,-0.001443236293,-0.002206307162,0,1,160.12823569999998,0,1,7,9.0,0.0,141.0788559842892,286.442,111.539973
B-4016,O1c2ccccc2Oc3ccccc13,-5.3106,14,36.0,0.0,-0.000312611762,-0.000271083774,-0.0029249782059999,0,4,176.1276406,0,2,6,10.0,0.001,150.4255674166811,299.302,116.524423
B-2180,O=C1OCc2ccc3ccccc3c12,-3.3062,14,36.0,5.956,-0.001572623106,0.003945957638,-0.007036223887,0,4,176.1276406,0,2,9,9.0,0.0,149.70083401077974,297.404,116.19311
B-2069,O=C1Cc2c(O1)ccc3ccccc23,-2.7078,14,36.0,8.517999999999999,-0.002528475742,0.005070609399,-0.013787009933,0,4,176.1276406,0,2,8,8.0,0.0,149.29184185265404,300.523,116.092854
A-77,O=[P+]1Oc2ccccc2c3ccccc13,-1.779623135,15,39.0,3.306,-0.059118405776,0.00485896918,-0.167828210115,0,3,207.1014026,0,2,10,11.0,0.0,167.43537939646023,321.733,136.87778400000002
F-74,O=S1(=O)C2=C(C=CC=C2)C2=C1C=CC=C2,-4.57,15,39.0,4.704,-0.007296114533,0.006233429906,-0.021093943235,0,4,208.192428,0,2,10,13.0,0.0,165.93677774606658,323.44,137.39215900000002
F-323,COC1=C2OC=CC2=CC2=C1OC(=O)C=C2,-3.52,16,42.0,2.011,-0.002588291259,0.005098271757,-0.028198384453,0,7,208.1264505,0,4,10,11.0,0.0,167.80178615970013,336.612,126.880579
F-321,COC1=C2C=COC2=CC2=C1C=CC(=O)O2,-3.6,16,42.0,9.044,-0.002874724851,0.006594299408,-0.031067353349,0,6,208.1264505,0,4,9,8.0,0.0,167.8480207145346,337.68699999999995,127.28856100000002
F-419,O=S(=O)(O)C1=CC2=C(C=C1)OC1=C2C=CC=C1,-0.47,17,45.0,6.531000000000001,-0.0138722016739999,0.013304369342,-0.029777389318,0,7,240.19123790000003,0,4,10,13.0,0.0,181.02885976959908,355.641,147.459572
B-4372,[O-][S](=O)(=O)c1ccc2oc3ccccc3c2c1,-0.4655,17,45.0,17.55,-0.014580526625,0.013869520316,-0.076169257805,0,10,240.19123790000003,0,4,6,11.0,0.0,181.3282324861437,358.514,150.33919
B-3575,s1c2ccccc2c3ccccc13,-5.0981,13,33.0,0.461,-5.568323e-06,-0.0017003911679999,-0.001800175133,0,2,176.19361819999995,0,0,6,7.0,0.0,152.64865651268957,300.409,126.62701
B-4071,Brc1ccc(cc1)c2ccccc2,-5.5526,13,33.0,1.607,-8.4536645e-05,-0.004438229463,-0.005927976073,0,3,224.0323586,0,0,7,9.0,0.0,161.24698710469067,334.59,127.583298
C-973,BrC1=CC=C(N[S](=O)(=O)C2=CC=CC=C2)C(=C1)Br,-5.01,18,48.0,8.382,-0.0078375450069999,0.00533856279,-0.0237688206,0,12,382.0061868,1,2,9,10.0,0.0,232.79273709682252,414.835,186.79362
E-176,c1ccccc1c2cc(Cl)ccc2,-4.88,12,33.0,1.132,-4.04507e-07,-0.002679555249,-0.004245882028,0,3,179.58176840000002,0,0,6,9.0,0.0,158.75824793307427,325.761,120.022256
E-1062,c1ccccc1c2ccc(Cl)cc2,-5.2,12,33.0,0.973,-2.57583e-07,-0.00268775002,-0.003924652721,0,3,179.58176840000002,0,0,7,8.0,-0.001,158.63248523052175,325.71,121.010347
B-4076,Clc1ccccc1c2ccccc2,-4.5917,13,33.0,3.68,-5.98427e-07,-0.003099924882,-0.010659154568,0,2,179.58176840000002,0,0,6,10.0,0.001,159.70741885797645,299.521,122.272769
C-868,ClC1=CC=CC(=C1Cl)N[S](=O)(=O)C2=CC=CC=C2,-4.73,18,48.0,1.643,-0.004191536653,0.004971189863,-0.0223773607139999,0,11,293.1050064,1,2,7,10.0,0.0,221.2965550531814,401.866,172.39231999999998
G-1141,CC1(OC(=O)N(C1=O)c2cc(Cl)cc(Cl)c2)C=C,-4.925,16,48.0,8.783,-0.002827357615,0.009222093454,-0.014126611116,0,14,277.0396239,1,3,5,9.0,0.0,213.50562390676535,413.957,156.133607
F-968,O=S(=O)(NS(=O)(=O)C1=CC=C(Cl)C=C1)C1=CC=C(Cl)C=C1,-2.48,19,57.0,10.364,-0.021698996363,0.014174646586,-0.255965684165,0,18,357.1686037,1,4,9,10.0,0.0,258.7544886879599,464.94,208.838627
C-971,NC1=CC=C(C=C1)[S](=O)(=O)NC2=C(Cl)C=C(Cl)C(=C2)Cl,-4.83,18,54.0,4.541,-0.0039058235169999,0.0042918141749999,-0.0257815002859999,0,16,342.5646472,2,2,8,10.0,0.0,255.0228539064184,445.21,194.466674
B-2692,CNC1=C(Cl)C(=O)N(N=C1)c2cccc(c2)C(F)(F)F,-3.9548,20,54.0,4.707,-0.000345546558,0.003980957261,-0.012111381626,0,17,294.5964924,3,1,10,11.0,0.0,220.1514762447226,407.293,155.96088799999998
B-2067,Clc1ccc(cc1)N=Nc2ccccc2,-5.7023,15,39.0,4.0360000000000005,-5.26199e-07,-0.004220975084,-0.006029037818,0,5,207.5951748,2,0,9,9.0,0.0,179.90977915392298,367.941,135.174006
B-3197,Nc1c(Cl)c(Oc2ccccc2)ccc1[N+]([O-])=O,-5.0248,18,48.0,5.27,-0.002641131534,0.007293791703,-0.007570258276,0,9,255.5933896,2,3,8,10.0,0.0,204.74139059197148,363.538,149.719993
B-2244,Clc1cccc(Oc2ccccc2)c1,-4.2107,14,36.0,1.508,-0.000144244499,8.0291532e-05,-0.001442694817,0,4,195.5811733,0,1,7,11.0,0.0,168.94529415978027,321.566,126.133987
B-2285,Clc1ccc(Oc2ccccc2)cc1,-4.7925,14,36.0,1.425,-0.000145885396,0.000211876502,-0.001411242339,0,4,195.5811733,0,1,7,9.0,0.0,168.83178221407863,320.978,126.057291
B-1926,Clc1ccccc1Oc2ccccc2,-4.7796,14,36.0,1.558,-9.5630534e-05,-0.000861628795,-0.00283760785,0,5,195.5811733,0,1,5,9.0,-0.001,169.00443667474048,316.94,126.212087
B-3363,Cc1ccn2nc(nc2n1)[S](=O)(=O)Nc3c(F)cccc3F,-3.8248,22,60.0,6.6370000000000005,-0.006208818622,0.005274813426,-0.0236707002039999,0,16,316.2227504,5,2,12,14.0,0.0,234.2277679490947,427.355,176.794373
C-1354,FC1=CN(C(=O)NC1=O)C(=O)OCC2=CC=CC=C2,-2.82,19,51.0,3.839,-0.002958721725,0.0114685511299999,-0.00525122881,0,11,255.1382601,2,4,16,15.0,0.0,205.8857979262978,404.775,143.115812
C-1380,FC1=CNC(=O)N(COC(=O)OC2=CC=CC=C2)C1=O,-2.45,20,54.0,4.218999999999999,-0.003108822149,0.01198286673,-0.007137631528,0,12,271.137665,2,5,16,13.0,0.0,207.90356407409803,402.351,147.463864
A-2037,[nH]1c2ccccc2c3ccccc13,-5.21042762,13,33.0,2.275,-1.178804e-06,-0.004914878603,-0.005785354381,0,1,158.135534,1,0,7,11.0,0.0,143.09615702255206,287.688,113.41673
C-1446,COC(=O)[N]1C2=C(C=CC=C2)N=C1C3=CSC=N3,-3.11,17,48.0,2.649,-0.001524959604,0.003549491566,-0.007186916487,0,8,250.2125377,3,2,11,10.0,0.0,203.4526880105496,356.35400000000004,156.802493
B-1656,[O-][N+](=O)c1ccc(NN=C2C=CC(=O)C=C2)cc1,-4.796,18,48.0,10.272,-0.006653599028,0.0117207952619999,-0.034946902006,0,6,234.1471552,3,3,17,15.0,0.001,194.66392127171935,401.11,134.63106299999998
D-1859,[O-][N+](=O)c1ccc(Nc2ccccc2)c(c1)[N+]([O-])=O,-3.834,19,51.0,10.778,-0.00757082977,0.0143776464149999,-0.027800737699,0,8,250.1465601,3,4,17,16.0,0.001,200.53422467768337,385.582,146.74332900000002
B-692,Oc1ccc(Nc2ccc(cc2[N+]([O-])=O)[N+]([O-])=O)cc1,-5.444,20,54.0,8.458,-0.008376181421,0.021289860454,-0.0262597824079999,0,10,266.145965,3,5,21,18.0,0.0,208.7826119785592,410.041,147.845146
C-1917,O=C(C1=CC=CC=C1)C2=NC=CC=C2,-2.02,14,36.0,4.246,-0.0014539647039999,0.000614897301,-0.008651534854,0,4,174.1349389,1,1,8,10.0,0.0,160.0398104987139,301.436,117.33985
B-1308,[O-][N+](=O)c1ccc2CCc3cccc1c23,-5.3403,15,39.0,6.164,-0.003938498445,0.006151596257,-0.014744663388,0,4,190.1343438,1,2,9,11.0,-0.001,157.63384537671337,307.596,122.933279