Name,SMILES,Solubility,AtomNum,DegFreedom,Dipole,Ghb,Gsasa,Gsolv,HNum,LP,MolWt,NNum,ONum,PiCenters,PiDeloc,Quadrupole,Volume,SASA,Polarizabilty
A-5444,CCN(CC)c1ccc(cc1)/C=C(C#N)/C(=O)OCCC[N+](C)(C)CCOC(=O)\C(=C\c2ccc(cc2)N(CC)CC)C#N,-0.8036189220000001,44,126.0,11.364,-0.0024863608139999,-0.006190279605,-0.131887771512,0,10,554.4068922,5,4,42,32.0,0.0,518.6823390009165,932.983,365.205534
C-2576,COCCNC(=O)C(NC(=O)C(CC(O)C(CC1=CC=CC=C1)NC(=O)OC(C)(C)C)CC2=CC(=C(OC)C(=C2)OC)OC)C(C)C,-4.0,47,135.0,53.11600000000001,-0.0063429030059999,0.007672911378,-0.169339112011,0,17,606.3905103999999,3,9,37,28.0,0.0,548.167963480382,848.0139999999999,374.077009
A-2418,Cc1cc(c(OP2OCC3(CO2)COP(OC3)Oc4c(cc(C)cc4C(C)(C)C)C(C)(C)C)c(c1)C(C)(C)C)C(C)(C)C,-7.801238331,42,123.0,6.077000000000001,-0.010600237749,-0.0015737460949999,-0.034609661021,0,18,578.31971,0,5,24,30.0,0.0,573.2672235373695,777.0980000000001,376.377938
A-5811,CCCCCCCCCCCCCCCCCCOC(=O)CCc1cc(c(O)c(c1)C(C)(C)C)C(C)(C)C,-8.270149867999999,38,108.0,12.786,-0.004068359293,-0.000849774193,-0.043905796513,0,8,468.3739713000001,0,3,22,34.0,0.001,473.3224024980948,873.931,326.907547
A-2772,CCCCCCCCCCCCCCCCCCNC(=O)CCc1cc(c(O)c(c1)C(C)(C)C)C(C)(C)C,-7.724189002,38,108.0,25.105,-0.004520171405,-0.0026417990509999,-0.068996566452,0,8,466.3812695,1,2,15,30.0,0.0,469.9923116325889,873.034,326.599692
A-1505,Clc1cc(c(Cl)cc1c2[nH]c3ccc4C(=O)c5ccccc5C(=O)c4c3n2)c6[nH]c7ccc8C(=O)c9ccccc9C(=O)c8c7n6,-4.524775941000001,46,132.0,1.341,-0.0047317840549999,0.006960575632,-0.036262884649,0,17,623.3168001,4,4,20,32.0,0.0,486.579210681692,746.6289999999999,393.124725
A-2525,COc1cc2c3ccccc3C(=O)c4ccc5c6ccc7C(=O)c8ccccc8c9cc(OC)c(c1c5c24)c6c79,-5.599170695,40,114.0,15.394,-0.005083881301,0.001470873872,-0.083659025491,0,6,496.3841121,0,4,22,27.0,0.0,413.4368551094399,614.438,340.114823
A-2916,[O-][S](=O)(=O)c1cccc2c(cccc12)N=Nc3ccc(N=Nc4ccc(Nc5ccccc5)c6c4cccc6[S]([O-])(=O)=O)c7ccccc37,-1.463118539,49,141.0,23.903,-0.022396053527,0.015541106254,-0.205466745894,0,22,662.5460128,5,6,18,28.0,0.0,536.1782549373644,769.153,429.146481
A-5819,CCOC(=O)C1=NN(C(=O)C1N=Nc2ccc(cc2Cl)c3ccc(N=NC4C(=O)N(N=C4C(=O)OCC)c5ccccc5)c(Cl)c3)c6ccccc6,-8.526560129,50,150.0,20.985,-0.004683609553,0.003058255417,-0.096257587713,0,18,711.3424227999999,8,6,39,34.0,0.0,574.2656004615949,871.4939999999999,435.411935
A-3517,CC(=O)C(N=Nc1ccc(cc1)N=Nc2c(N)c3c(cc2[S]([O-])(=O)=O)C=C(\C(=N/Nc4ccc(c5ccccc45)[S]([O-])(=O)=O)C3=O)[S]([O-])(=O)=O)C(=O)Nc6ccccc6,-2.218028318,59,171.0,41.328,-0.03070880387,0.0281207233339999,-0.4599864358389999,0,34,832.6273392999999,8,12,29,32.0,0.001,644.1831154269597,905.858,499.324129
A-2776,O=[P](Oc1ccccc1)(Oc2ccccc2)Oc3ccc(cc3)c4ccc(O[P](=O)(Oc5ccccc5)Oc6ccccc6)cc4,-7.813287357,46,132.0,4.221,-0.009845224019,0.002747826501,-0.021492182595,0,15,622.3292557999999,0,8,23,28.0,0.001,519.3091607763172,794.802,396.283051
A-5812,CC(=O)C(N=Nc1cc(Cl)c(cc1Cl)c2cc(Cl)c(cc2Cl)N=NC(C(C)=O)C(=O)Nc3ccc(C)cc3C)C(=O)Nc4ccc(C)cc4C,-8.462687047000001,46,144.0,14.759,-0.004155767728,0.011043627644,-0.068341576263,0,23,722.2360817000001,5,4,37,32.0,0.0,609.6386836152857,890.534,436.438092
A-5606,COc1cc(NC(=O)C(N=Nc2ccc(cc2Cl)c3ccc(N=NC(C(C)=O)C(=O)Nc4cc(OC)c(Cl)cc4OC)c(Cl)c3)C(C)=O)c(OC)cc1Cl,-8.004532604,51,156.0,15.023,-0.004683631917,0.010563218378,-0.100185199095,0,25,786.2337012999999,6,8,39,33.0,0.0,638.6966194650752,995.888,463.07084800000007
A-5841,CC(=O)C(N=Nc1ccccc1OCCOc2ccccc2N=NC(C(C)=O)C(=O)Nc3ccc4NC(=O)Nc4c3)C(=O)Nc5ccc6NC(=O)Nc6c5,-7.634485568,54,156.0,18.255,-0.00612824488,0.01507838728,-0.0397052520539999,0,14,700.4487638999999,10,8,67,39.0,0.0,407.07632662437805,1039.887,425.093294
A-5959,CC(=O)C(N=Nc1ccc(cc1Cl)c2ccc(N=NC(C(C)=O)C(=O)Nc3ccc(C)cc3C)c(Cl)c2)C(=O)Nc4ccc(C)cc4C,-9.292010366,46,138.0,16.542,-0.00761399634,0.010125895679,-0.078328156891,0,18,651.3302065,6,4,34,27.0,0.001,574.0766338720248,841.706,402.975517
A-3874,OCCNc1nc(Nc2ccccc2)nc(Nc3ccc(\C=C\c4ccc(Nc5nc(NCCO)nc(Nc6ccccc6)n5)cc4[S]([O-])(=O)=O)c(c3)[S]([O-])(=O)=O)n1,-1.4592143999999998,58,168.0,16.71,-0.027274193404,0.023497392696,-0.205078359195,0,26,792.5917451,12,8,42,37.0,0.0,624.51964896711,1016.014,481.83967
A-5520,CCc1cc(C)cc(CC)c1Nc2ccc(Nc3c(CC)cc(C)cc3CC)c4C(=O)c5ccccc5C(=O)c24,-7.423828912,40,114.0,8.49,-0.00167126797,-0.00482137901,-0.042217391113,0,9,492.3987087,2,2,27,27.0,0.0,457.9505784256373,671.8939999999999,344.163949
A-5649,CCCCCCCCCCCCCCCCCCN1C(=O)c2ccc3Sc4ccccc4c5ccc(C1=O)c2c35,-7.96678917,39,114.0,31.42,-0.004294873996,-0.000128361564,-0.045701785328,0,6,510.4567929,1,2,14,26.0,0.0,453.3415973800112,814.721,358.588202
B-2378,COC1[C@H](O)C(CO[C@@H]2C(O)C[C@@H](O)OC2C)O[C@@H](O[C@H]3CC[C@]4(C)C5CC[C@]6(C)[C@H](CC[C@]6(O)C5CC[C@]4(O)C3)C7=CC(=O)OC7)C1O,-1.94,49,141.0,7.592,-0.012301868488,0.031420041826,-0.079366970821,0,25,640.3787563999999,0,13,33,32.0,0.0,522.1533142082499,809.442,380.557952
A-2532,CCCCCCCCCCCCCCCC(=O)OC/C=C(C)/C=C/C=C(C)/C=C/C1=C(C)CCCC1(C)C,-5.72005506,38,108.0,39.523,-0.002273454473,-0.005409665816,-0.0538161992229999,0,8,464.3853022,0,2,12,27.0,0.0,478.8484185174314,888.916,333.722357
C-2484,OCC1OC2OC3C(O)C(O)C(OC3CO)OC4C(O)C(O)C(OC4CO)OC5C(O)C(O)C(OC5CO)OC6C(O)C(O)C(OC6CO)OC7C(O)C(O)C(OC7CO)OC1C(O)C2O,-0.91,66,192.0,15.827,-0.012832775244,0.07582543888,-0.09021070354,0,51,912.36864,0,30,43,38.0,0.0,637.073736375444,868.063,455.334968
A-6054,CCCCCCCCCOC(=O)c1ccc(C(=O)OCCCCCCCCC)c(c1)C(=O)OCCCCCCCCC,-6.757182205,42,120.0,3.898,-0.004965845769,0.002211374733,-0.057947767786,0,12,528.3829218999999,0,6,16,33.0,0.0,489.2480817268244,958.849,355.325594
A-1689,CCCCCCCCN=C1C=CN(CCCCCCCCCCN2C=CC(C=C2)=NCCCCCCCC)C=C1,-1.642786266,40,114.0,6.641,-4.427636e-06,-0.014594451617,-0.034889617078,0,2,488.4133052,4,0,16,33.0,0.0,474.5930714406021,940.463,353.796667
A-2731,CCCCCCCCC\C=C/CCCCCCC(=O)OCCCCCCCC\C=C/CCCCCCCC,-7.027706683,38,108.0,30.779,-0.003030874641,-0.005427188852,-0.047589663936,0,5,464.3853022,0,2,6,31.0,0.0,460.5586920561605,959.461,336.06779700000004
A-6098,CCCCCCCC/C=C/CCCCCCCCO[P+](=O)OCCCCCCCC\C=C\CCCCCCCC,-9.534419587,39,114.0,21.448,-0.102855303491,-0.003696017327,-0.271454780627,0,6,511.3584692,0,2,14,36.0,0.0,487.2353711901648,1004.204,361.731596
A-2260,CCCCCCCCCCCCCCCC(O)C(CO)NC(=O)CCCCCCC\C=C/CCCCCCCC,-6.451761881,40,114.0,12.464,-0.0058567993629999,-0.001441277362,-0.093025188308,0,9,494.3914103999999,1,3,8,27.0,-0.001,478.1948366308444,957.081,346.281994
A-5687,CC(C)CCCCCCCCCCCCCCCOC(=O)CCCCCCCCCCCCCCC(C)C,-7.086497346,38,108.0,19.663,-0.002900396982,-0.005274944321,-0.039687204615,0,5,464.3853022,0,2,7,28.0,0.0,472.4496918108242,952.602,334.577957
A-2779,CCCCCCCCCCCCCCCCCCNC(=O)CCCCCCCCCCCCCCCCC,-7.7291534460000015,38,108.0,14.594,-0.0035197098759999,-0.007965676287,-0.050659296406,0,4,462.3926005,1,1,5,26.0,0.0,461.1002087043945,962.377,337.922881
B-1426,CCCCCCCCCCCCCCCCCCCCCCCCCCCCCCCCCCCC,-8.4746,36,102.0,11.334,-3.874863e-06,-0.013318641461,-0.037925878551,0,2,432.3864924,0,0,0,34.0,0.0,443.443866545972,928.727,326.64837400000005
A-2693,CCCCCCCCCCCCCCCCCCOCCCCCCCCCCCCCCCCCC,-7.019520889,37,105.0,7.191,-6.032042e-06,-0.0113265732529999,-0.040453190214,0,3,448.3858973,0,1,7,36.0,0.0,452.81988269508,948.818,331.818358
A-2601,CCCCCCCCCCCCCCCCCCSSCCCCCCCCCCCCCCCCCC,-6.057758885,37,108.0,13.746,-1.4311715e-05,-0.009423916284,-0.034544463053,0,4,496.5160672,0,0,3,36.0,0.0,485.5237645933507,1004.289,366.730438
A-6057,O=C1c2ccccc2C(=O)c3c(Nc4nc(Nc5cccc6C(=O)c7ccccc7C(=O)c56)nc(n4)c8ccccc8)cccc13,-7.77786597,46,132.0,3.835,-0.004434344477,0.005141074337,-0.040192643517,0,12,578.428364,5,4,24,32.0,0.0,484.4624433146452,706.945,378.719779
A-5814,O[S](=O)(=O)c1ccccc1N=C2C=CC(C=C2)=C(c3ccc(Nc4ccccc4)cc3)c5ccc(Nc6ccccc6)cc5,-8.377105087999999,44,126.0,33.891,-0.013393686934,0.003315862254,-0.066181810931,0,8,566.4803401,3,3,26,32.0,0.0,502.1193247047326,729.956,383.699864
A-72,CCCCCCCCCCCCNc1nc(Cl)nc(Nc2ccc3c(O)c(N=Nc4ccc(cc4)N=Nc5ccc(cc5)[S]([O-])(=O)=O)c(cc3c2)[S]([O-])(=O)=O)n1,-3.358911212,55,162.0,31.577,-0.025163435833,0.0147763895889999,-0.207484753571,0,28,782.035904,8,7,23,35.0,0.0,631.534650638449,1016.629,486.2188440000001
A-6088,CC(C)(C)c1ccc2OC(=O)C(c2c1)c3cc(ccc3OC(=O)c4cc(c(O)c(c4)C(C)(C)C)C(C)(C)C)C(C)(C)C,-8.848512617,42,120.0,3.445,-0.004375735872,0.0066012659629999,-0.036070751336,0,14,524.3942529,0,5,27,28.0,0.0,507.8657170121558,788.398,341.587425
A-2737,CC(CC(c1cc(c(O)cc1C)C(C)(C)C)c2cc(c(O)cc2C)C(C)(C)C)c3cc(c(O)cc3C)C(C)(C)C,-7.13419305,40,114.0,3.0810000000000004,-0.003558124049,0.00658504514,-0.031464573124,0,9,492.3954431,0,3,29,31.0,0.001,507.0016659462185,802.498,334.287013
C-991,CCC1OC(=O)C(C)C(OC2CC(C)(OC)C(O)C(C)O2)C(C)C(OC3OC(C)CC(C3O)N(C)C)C(C)(O)CC(C)C(=O)C(C)C(O)C1(C)O,-1.27,51,147.0,17.527,-0.007205472762,0.018078524791,-0.073187793685,0,25,666.3961955,1,13,38,35.0,0.0,615.2318163863516,793.4789999999999,397.978676
A-2430,CCCCCCCCCCCCCCCC(=O)O[C@@H]1C[C@H](N(C1)C(=O)CCCCCCCCCCCCCCC)C(O)=O,-5.783875721,43,123.0,28.095,-0.005356334484,0.003435842792,-0.066259051449,0,11,538.4009561,1,5,14,36.0,0.0,501.3528301883409,964.719,364.000773
A-3392,CC(C)(C)c1ccc(cc1)[S](=O)(=O)Nc2ccc3cc(ccc3c2)[S](=O)(=O)c4cc5N=C6C(=C7Oc8c(ccc(N)c8[S](O)(=O)=O)N=C7C(=C6Oc5c(c4N)[S](O)(=O)=O)Cl)Cl,-2.180765898,60,177.0,9.594,-0.037681651304,0.0316668505159999,-0.139505354024,0,37,917.5993641,5,12,33,41.0,0.0,693.9507031431864,997.773,534.517806
A-2618,Cc1cccc(c1)N(c2ccccc2)c3ccc(cc3)c4ccc(cc4)N(c5ccccc5)c6cccc(C)c6,-6.41219838,40,114.0,12.324000000000002,-3.418593e-06,-0.009977965839,-0.021986947678,0,4,484.4213706000001,2,0,13,25.0,0.0,464.6520881719412,686.2669999999999,340.406179
A-367,CN(CCO)c1nc(Nc2ccccc2)nc(Nc3ccc(/C=C/c4ccc(Nc5nc(Nc6ccccc6)nc(n5)N(C)CCO)cc4[S]([O-])(=O)=O)c(c3)[S]([O-])(=O)=O)n1,-3.069321152,60,174.0,12.503,-0.011820799175,0.006390218194,-0.248667011202,0,27,816.6132169,12,8,35,35.0,0.0,668.1306488328307,874.534,503.885366
A-5506,Cc1cccc(C)c1O[P](=O)(Oc2cccc(O[P](=O)(Oc3c(C)cccc3C)Oc4c(C)cccc4C)c2)Oc5c(C)cccc5C,-6.836753133999999,48,138.0,17.279,-0.01784242643,0.003534294078,-0.043442329913,0,20,646.3507276,0,8,23,26.0,0.001,575.6123570157499,752.655,412.047528
A-2546,CC(C)(C)c1cc(CCC(=O)OCCSCCOC(=O)CCc2cc(c(O)c(c2)C(C)(C)C)C(C)(C)C)cc(c1O)C(C)(C)C,-5.808172472000001,44,129.0,13.071,-0.006236200792,0.010115741587,-0.065634869876,0,17,584.4691811,0,6,36,34.0,0.0,563.3241029270009,927.542,379.371151
C-1001,CCC1OC(=O)C(C)C(OC2CC(C)(OC)C(O)C(C)O2)C(C)C(OC3OC(C)CC(C3O)N(C)C)C(C)(CC(C)C(=O)C(C)C(O)C1(C)O)OC,-2.2,52,150.0,10.242,-0.0039523801779999,0.012305552775,-0.048118330574,0,25,678.4069314,1,13,41,39.0,0.0,641.4074714642583,792.3480000000001,406.887829
A-2698,CCCCCCCCCCCCCCCCCOC(=O)/C=C/C(=O)OCCCCCCCCCCCCCCCCC,-7.074077365,42,120.0,2.489,-0.005228272359,0.001021828112,-0.045216201356,0,7,520.4055839,0,4,11,27.0,0.0,500.835115697868,1036.017,363.568919
A-2635,CCCCCCC(O)CCCCCCCCCCC(=O)NCCNC(=O)CCCCCCCCCCC(O)CCCCCC,-6.735207192000001,44,126.0,4.442,-0.010803813883,0.009141402261,-0.067961585689,0,8,548.4189903,2,4,19,34.0,-0.001,518.5811803475839,1068.799,376.24551
C-2602,CCC(C)C1NC(=O)C(CC2=C[NH]C3=C2C=CC=C3)NC(=O)C4CCCN4C(=O)C(CC5=C[NH]C=N5)NC(=O)C6CCCCN6C(=O)C7CCC=NN7C1=O,-2.6,55,159.0,23.785,-0.004589367709,0.0019105237239999,-0.093979870105,0,19,704.4821617,10,6,32,35.0,-0.001,597.3775540711442,708.694,434.935542
A-5078,CC(C)CCCCCCCOC(=O)c1ccc(C(=O)OCCCCCCCC(C)C)c(c1)C(=O)OCCCCCCCC(C)C,-5.706573948,45,129.0,9.508,-0.004629905618,0.001630873758,-0.045179016945,0,13,564.4151296,0,6,25,38.0,0.0,546.595601850962,1022.902,381.741804
A-2517,CCCCCCCC\C=C/CCCCCCCC(=O)OCC(C)OC(=O)CCCCCCC\C=C/CCCCCCCC,-4.781756093,43,123.0,9.765,-0.005516719778,0.0025019975339999,-0.0554636136809999,0,11,532.4163198,0,4,8,27.0,0.0,515.8517501803462,1037.846,371.805007
A-779,Clc1nc(Cl)nc(Cl)n1,-2.622338856,9,21.0,0.0,-4.813187e-06,0.000135001772,-0.000520851723,0,12,184.4111301,3,0,0,3.0,0.0,120.68278567300683,280.16900000000004,92.457583
B-321,ClN1C(=O)N(Cl)C(=O)N(Cl)C1=O,-1.2871,11,30.0,0.0,-0.003420193525,0.0131111971099999,-0.002751968454,0,15,232.40934480000004,3,3,9,8.0,-0.001,144.8349601806757,307.313,107.286655
B-1742,ClC(Cl)=C(Cl)C(Cl)(Cl)Cl,-4.1651,9,21.0,0.8859999999999999,-3.7371e-08,0.003923568235,0.001723968798,0,18,248.7498332,0,0,2,1.0,0.0,153.4546110627375,308.647,115.015231
A-4283,ClC(Cl)(Cl)C(=O)C(Cl)(Cl)Cl,-1.17979792,10,24.0,1.058,-0.000502915947,0.006979656294,0.001521444371,0,20,264.7492381,0,1,2,1.0,0.0,162.00152463597254,316.726,118.133754
A-1485,FC(F)=C(F)C(F)(F)F,-2.8887982830000003,9,21.0,1.208,-0.000330375058,0.012985206925,0.005387062424,0,18,150.0226267,0,0,2,1.0,0.0,84.88955680620663,223.682,45.638656
D-1379,FC(F)(F)C(F)(F)C(F)(F)F,-4.518,11,27.0,0.011,-0.000397300448,0.0154669061519999,0.00580634379,0,24,188.019433,0,0,0,8.0,0.0,98.99398838204976,239.689,50.382861
A-4544,CC(N)CN,1.130023576,5,9.0,0.367,-2.748693e-06,-0.005960246677,-0.0075271716949999,0,3,64.04561410000001,2,0,4,3.0,0.0,67.12962571169999,185.546,40.218394
B-2349,NC(=O)C(Br)(Br)C#N,-1.2075,8,18.0,1.82,-0.000656340643,0.0011013045179999,-0.003156975066,0,8,239.8520746,2,1,9,5.0,0.0,120.56280661576344,279.84,86.66087399999999
B-1680,OC(=O)C=C(Br)Br,-0.8358,7,15.0,0.755,-0.001808381311,0.007748426728,-0.000182990533,0,9,227.8380731,0,2,6,5.0,0.0,100.07717625701304,259.808,79.598513
A-4688,FC(F)(F)C(Br)=C,-2.238585126,7,15.0,0.619,-0.000311974026,0.005363224345,0.000224484327,0,13,172.930945,0,0,2,1.0,0.0,87.36020815480431,227.631,57.969141
B-2858,OC(=O)C(I)=CBr,-1.2118,7,15.0,0.3389999999999999,-0.000868662156,0.0030576370189999,9.0307444e-05,0,8,274.8390172,0,2,9,4.0,0.001,114.65242228781004,281.717,92.181359
B-4059,FC(F)OC(Cl)C(F)(F)F,-1.6157,10,24.0,2.736,-0.000322947843,0.012352172488,0.002383410707,0,19,182.476566,0,1,3,2.0,0.0,105.49561123255828,258.703,62.381954
B-4058,FC(F)OC(F)(F)C(F)Cl,-1.5162,10,24.0,2.184,-0.000490375789,0.0129000042519999,0.00688170941,0,20,182.476566,0,1,2,1.0,0.0,111.07126864270944,260.45,62.715033
A-140,FC(=C)C(F)(F)F,-2.759957367,7,15.0,0.8440000000000001,-0.000202783476,0.007983316413,0.003861651419,0,13,112.0258203,0,0,2,1.0,-0.001,73.19769295745455,200.017,39.99748
A-4271,OC(C(F)(F)F)C(F)(F)F,0.020110333,10,24.0,0.491,-0.0006446361729999,0.016787255469,0.007111998818,0,20,166.0220316,0,1,2,1.0,0.0,92.79747373628916,233.226,50.211484000000006
C-1074,N#CCC#N,0.25,5,9.0,0.013,-5.126609e-06,-0.006619659617,-0.00927602953,0,2,64.04561410000001,2,0,4,2.0,0.001,64.77681952854697,190.436,40.139553
E-737,O=C(NC(=O)C1=O)N1,-0.4,8,18.0,2.099,-0.002786632158,0.015352800144,0.0053032764729999,0,4,112.0438289,2,3,14,7.0,0.001,85.00561551131372,233.206,55.49001
A-3490,O=C1OC=CO1,0.777076543,6,12.0,2.977,-0.002391162806,0.009839531077,-0.0003413406689999,0,4,84.0304225,0,3,7,4.0,0.0,63.11336226897674,184.235,41.550259
B-508,BrCC#C,-0.9022,4,6.0,4.056,-1.3679502e-05,-0.0024864342879999,-0.004536752315,0,4,115.9357355,0,0,4,2.0,0.0,66.0680228384925,200.325,50.249153
B-2447,ClC(Cl)C(Cl)C(Cl)Cl,-2.7223,8,18.0,0.488,-8.7038e-08,0.003367146886,0.001918754617,0,15,213.2968956,0,0,4,2.0,-0.001,134.275416673457,288.033,101.809815
A-1168,COC(=O)C(F)(F)F,-0.647983703,8,18.0,2.818,-0.002246233205,0.011174609305,-0.007235181857,0,12,125.026227,0,2,7,3.0,0.0,82.09608346877475,224.795,46.963422
B-3942,C=CC#N,0.1474,4,6.0,1.72,-2.384794e-06,-0.004409812303,-0.0050801784499999,0,2,50.0389109,1,0,6,3.0,0.0,55.67232518882141,172.96099999999998,34.660345
A-2865,[O-][N+](=O)c1[nH]ncc1,-1.285472821,8,18.0,4.702,-0.003315075941,0.0066631526439999,-0.007563813025,0,7,110.0511272,3,2,4,5.0,0.0,83.64276907489855,217.58900000000003,56.518825
A-1382,O=C1NC(=O)NC(=O)N1,-1.807646076,9,21.0,0.005,-0.003417538786,0.014057647262,0.001173977287,0,6,126.0505321,3,3,11,7.0,0.0,88.76812108069186,227.283,61.725782
B-879,o1cccn1,0.3827,5,9.0,0.667,-7.538033499999999e-05,0.0003388865,-0.000536415938,0,3,66.03831579999999,1,1,5,4.0,-0.001,58.469595767602655,170.384,38.301881
A-4512,OC(=O)CC#N,1.07026441,6,12.0,0.5489999999999999,-0.001635708662,0.006822207042,-0.000720692944,0,5,82.03772070000001,1,2,7,5.0,0.0,69.52473035633517,197.772,42.825442
B-820,O=C1CSC(=S)N1,-1.7723,7,15.0,5.462999999999999,-0.003061059336,0.0107779150759999,-0.007336362999,0,5,130.16789070000002,1,1,12,5.0,0.0,100.349953590904,263.039,78.42995
B-169,CC#C,-1.0417,3,4.0,0.001,-2.60347e-07,-0.002257767728,-0.001999863418,0,2,36.03220770000001,0,0,0,9.0,0.0,47.46364117924185,157.437,29.203371
B-247,ClCC(Cl)=C,-1.7128,5,9.0,2.964,-7.999930000000001e-07,0.001012885104,0.000243217527,0,7,106.9380829,0,0,1,1.0,0.0,82.45149418051251,217.643,56.79673
D-2037,CC(Cl)=CCl,-1.614,5,9.0,2.967,-8.00938e-07,0.001012449271,0.000244192062,0,7,106.9380829,0,0,1,1.0,0.0,82.4468852682372,217.624,56.797223
B-1200,C\C(Cl)=C\Cl,-1.6138,5,9.0,2.892,-7.941e-08,0.000927773174,0.000519018539,0,6,106.9380829,0,0,3,2.0,0.0,86.58378853046976,224.239,57.448583
B-2346,ClC/C=C/Cl,-1.598,5,9.0,2.877,-7.8456e-08,0.000927569052,0.000532570096,0,6,106.9380829,0,0,3,2.0,0.0,80.50901354051352,224.261,57.447163
A-1346,ClC\C=C/Cl,-1.706753006,5,9.0,2.904,-7.9046e-08,0.000927220998,0.000503776982,0,6,106.9380829,0,0,3,2.0,0.0,80.52049399059773,224.265,57.447078000000005
B-196,CC(Cl)(Cl)C(O)=O,0.5455,7,15.0,0.136,-0.000949446833,0.008838643154,0.005762217692,0,8,138.9368927,0,2,9,4.0,0.001,108.32377058734754,254.873,67.450572
B-532,NC(=O)OCC(Cl)(Cl)Cl,-1.2843,9,21.0,3.264,-0.000982799569,0.003649180798,-0.003612420524,0,13,188.3965335,1,2,6,5.0,0.0,132.41573408084406,286.376,86.515017
B-2377,ClCC(Cl)(Cl)CCl,-2.5785,7,15.0,2.411,-6.0004e-08,0.002340271687,-0.001971487804,0,12,177.843958,0,0,2,1.0,0.0,119.88188979243388,264.623,85.22521400000001
E-671,N#CCCCl,-0.29,5,9.0,5.446000000000001,-5.075312e-06,-0.002772476096,-0.006410634224,0,4,85.4918485,1,0,6,3.0,0.0,71.93243231793303,206.982,48.815911
B-1995,Nc1nc(N)nc(Cl)n1,-2.3849,9,21.0,3.895,-6.923355e-06,-0.0071533943249999,-0.009160786999,0,7,141.51866130000002,5,0,10,6.0,0.0,106.50371344751574,250.521,75.192031
B-2483,NC(=O)C(Cl)=C,-0.2104,6,12.0,2.515,-0.00120795137,0.00516317965,0.000544600552,0,4,101.4912534,1,1,9,3.0,0.0,92.53904331244152,224.391,54.03517
A-4392,[nH]1cccn1,1.28788965,5,9.0,1.253,-2.380204e-06,-0.004829593797,-0.005765317024,0,2,64.04561410000001,2,0,5,5.0,0.0,59.8165561897449,171.0,39.697969
A-3348,[nH]1ccnc1,0.968390542,5,9.0,0.929,-2.6627440000000003e-06,-0.004861125001,-0.005270489958,0,2,64.04561410000001,2,0,6,5.0,0.0,59.93796542194716,170.447,37.883089
B-538,NC(=O)CC#N,0.1893,6,12.0,1.045,-0.001559132665,0.000575659844,-0.007043331042,0,4,80.045019,2,1,6,6.0,0.0,73.22983214299408,199.351,44.76812
B-4585,O=C1CNC(=O)N1,-0.4016,7,15.0,2.046,-0.00204301859,0.009092321239,0.001063920131,0,4,96.044424,2,2,11,6.0,-0.001,79.29286545204434,223.11900000000003,51.561418
B-3062,O[S](=O)(=O)c1c[nH]cn1,0.1304,9,21.0,0.7490000000000001,-0.010254952165,0.009868812914,-0.030583513671,0,10,144.10861630000002,2,3,2,3.0,0.0,103.8835019530636,232.788,71.325489
C-1696,O[S](=O)(=O)C1=NC=C[NH]1,-0.3,9,21.0,3.921,-0.01184230851,0.010664906052,-0.024109142963,0,8,144.10861630000002,2,3,11,7.0,0.0,99.76057863081104,239.867,73.86895600000001
E-669,s1c(N)ncc1,-0.36,6,12.0,5.12,-1.7589828e-05,-0.001330329466,-0.006413237947,0,3,96.1104015,2,0,10,7.0,0.001,76.165377027275,231.503,60.46641700000001
A-5367,OCC#C,1.25131592,4,6.0,2.49,-0.000249628788,0.004242227297,0.0016673915419999,0,2,52.0316126,0,1,3,3.0,0.0,52.592934221906006,170.40900000000002,33.306363
A-4100,C=CC=O,0.569379255,4,6.0,2.494,-0.000248890904,0.004241754324,0.00166486447,0,2,52.0316126,0,1,3,4.0,0.0,52.58983906596497,170.4,33.306775
A-3249,OC(=O)C=C,0.00596733,5,9.0,5.377999999999999,-0.000482856337,0.005626342679,-0.006017819454,0,2,68.0310175,0,2,9,3.0,0.0,65.71544825518136,190.871,38.746137
B-1503,O=CC1CO1,1.1423,5,9.0,0.5710000000000001,-0.000771311342,0.008927600341,0.005529042776,0,3,68.0310175,0,2,7,4.0,0.0,53.45711269688478,180.806,36.634454