Name,SMILES,Solubility,AtomNum,DegFreedom,Dipole,Ghb,Gsasa,Gsolv,HNum,LP,MolWt,NNum,ONum,PiCenters,PiDeloc,Quadrupole,Volume,SASA,Polarizabilty
A-5480,Brc1ccc2c3cc4ccc5C(=O)c6ccccc6c7cc8ccc(C(=O)c2c1Br)c3c8c4c57,-4.450427718,33,96.0,6.267,-0.0032245568219999,0.000575527933,-0.03532923038,0,10,552.1279423999999,0,2,13,25.0,0.0,369.30908875455566,569.619,317.185167
A-2036,O=[P](Oc1ccccc1)(Oc2ccccc2)Oc3cccc(O[P](=O)(Oc4ccccc4)Oc5ccccc5)c3,-5.738072007,40,114.0,4.553,-0.006505889472,0.003884747284,-0.015182272472,0,14,550.2648404,0,8,24,26.0,0.0,446.5288011413848,733.3960000000001,347.760406
A-2736,CC(C)(c1ccccc1)c2cc(n3nc4ccccc4n3)c(O)c(c2)C(C)(C)c5ccccc5,-7.0488126210000015,34,96.0,9.484,-1.4872667e-05,-0.008674069252,-0.028598369765,0,5,418.3415915,3,1,19,23.0,0.0,399.4306478886366,598.995,293.192121
A-5621,CCN(CC)[S](=O)(=O)c1ccc(OC)c(N\N=C2\C(=O)C(=Cc3ccccc23)C(=O)Nc4cc(Cl)c(OC)cc4OC)c1,-7.905255356,42,123.0,27.158,-0.009135873754,0.007559726322,-0.096900420084,0,17,595.8624493,4,7,27,26.0,0.0,491.4170676573234,732.8989999999999,366.52667
A-2788,CC(C)(c1ccccc1)c2ccc(Nc3ccc(cc3)C(C)(C)c4ccccc4)cc2,-7.782007082000001,31,87.0,7.859,-3.905882e-06,-0.009160774472,-0.025519535366,0,3,374.3287802,1,0,16,25.0,0.0,380.8637205809643,590.82,272.614014
A-3998,CCOC(=O)c1ccccc1c2c3ccc(cc3[o+]c4cc(ccc24)N(CC)CC)N(CC)CC,-1.280189706,35,99.0,9.685,-0.000764673205,-0.004731278616,-0.1098450751799999,0,7,436.3336982,2,3,22,28.0,0.0,397.1408588695471,669.418,297.970529
C-907,CC(C)(C)CC(=O)OCC(=O)C12OC(C)(C)OC1CC3C4CCC5=CC(=O)C=CC5(C)C4(F)C(O)CC23C,-5.12,38,108.0,2.989,-0.004380695304,0.018150117374,-0.032737057225,0,19,491.31631460000006,0,7,23,25.0,0.001,448.28940662968336,591.6619999999999,290.364005
B-2173,CC(C)(C)CC(=O)OCC(=O)[C@@]12OC(C)(C)O[C@@H]1C[C@H]3[C@@H]4CCC5=CC(=O)C=C[C@]5(C)[C@@]4(F)[C@@H](O)C[C@]23C,-5.1244,38,108.0,7.294,-0.005465200034,0.01486197921,-0.0428765597659999,0,20,491.31631460000006,0,7,24,25.0,0.001,449.850148740666,608.931,289.86519
D-1635,CC1OC(O[C@H]2CC[C@]3(C)[C@H]4CC[C@]5(C)[C@H](CC[C@]5(O)[C@@H]4CCC3=C2)C6=COC(=O)C=C6)C(O)C(O)C1O,-3.955,38,108.0,65.704,-0.008272424298,0.028193906622,-0.124347977474,0,16,488.3173164,0,8,24,28.0,0.0,403.34114350347903,682.252,302.745907
B-1626,COC1[C@H](O)C(C)O[C@H](O[C@H]2CC[C@@]3(C=O)[C@H](CCC4C3CC[C@]5(C)[C@H](CC[C@]45O)C6=CC(=O)OC6)C2)C1O,-3.1373,39,111.0,15.307,-0.01039171797,0.022490923053,-0.075757954375,0,15,504.3167213,0,9,30,26.0,0.0,422.69144669559967,695.6110000000001,312.09327
A-6008,CCCCCCCCCc1cccc(Nc2cccc(CCCCCCCCC)c2)c1,-7.926046985,31,87.0,0.436,-6.043495e-06,-0.011101241983,-0.03041126793,0,3,374.3287802,1,0,3,16.0,0.001,371.6003595575691,722.9960000000001,275.049849
A-5511,CC(C)CCCCCCCCCCOC(=O)CSCc1cc(c(O)c(c1)C(C)(C)C)C(C)(C)C,-6.789589525,34,96.0,13.139,-0.002132341356,0.002283268265,-0.04703245173,0,8,440.3850792,0,3,19,26.0,0.0,444.5266025774505,786.054,298.859916
A-2724,CCCCCCCCCCCCOC(=O)CCCCCCC\C=C\CCCCCCCC,-6.955006196,32,90.0,32.572,-0.002646783972,-0.004337749904,-0.045861811211,0,5,392.3208868,0,2,8,25.0,0.0,388.2916002556234,819.645,282.047278
A-212,CC(C)CCCCCCCOC(=O)CCCCCCCCC(=O)OCCCCCCCC(C)C,-7.252394502,34,96.0,0.933,-0.004478188607,0.002617038303,-0.036001596382,0,8,424.3196967,0,4,21,28.0,0.0,422.90672657640994,849.818,291.541694
A-2574,CCCCCCCCCCCCOC(=O)CCSCCC(=O)OCCCCCCCCCCCC,-5.711686622,34,99.0,9.093,-0.004842052239,0.006000849969,-0.044617451467,0,9,456.3844841,0,4,19,33.0,0.0,425.4779802909031,879.154,311.880211
A-5013,CCCCCCCCCCCCCCOC(=O)OOC(=O)OCCCCCCCCCCCCCC,-4.349900579,36,102.0,5.561,-0.00340700771,0.004985016493,-0.033466939379,0,12,456.31850650000007,0,6,12,28.0,0.0,422.3889244941104,874.683,301.797574
A-4885,CCCCCCCCCCCCCC[N+](C)(C)CCCCCCCCCCCCCC,-3.37502496,31,87.0,14.081,-3.2855450000000003e-06,-0.011456791436,-0.084297590068,0,3,374.3287802,1,0,3,25.0,0.001,393.10475636910513,794.043,273.081271
A-2004,O=C1c2ccccc2C(=O)c3c4Nc5ccc6c7ccccc7C(=O)c8ccc(c4ccc13)c5c68,-5.506567842999999,35,99.0,4.367,-0.0044170619559999,0.005449527422,-0.030247833525,0,7,434.3377309,1,3,17,23.0,0.0,358.3952551321659,558.069,294.858784
A-124,Cc1cc(C)c(Nc2cc(c(N)c3C(=O)c4ccccc4C(=O)c23)[S]([O-])(=O)=O)c(C)c1CNC(=O)c5ccccc5,-1.439605121,41,117.0,24.13,-0.016644906898,0.015096861728,-0.101813050886,0,16,542.4141394999999,3,6,28,31.0,0.0,449.5898711882205,714.3610000000001,344.99828
A-5352,CCN(Cc1cccc(c1)[S]([O-])(=O)=O)c2ccc(cc2)N=Nc3ccc(N=Nc4cccc(c4)[S]([O-])(=O)=O)c5ccccc35,0.171543767,44,126.0,4.381,-0.02961497216,0.020063376081,-0.195743381252,0,21,602.4923332999999,5,6,19,25.0,-0.001,489.93093644071024,776.628,383.552019
A-4449,CCN(CC)c1ccc(cc1)C(c2ccc(cc2)N(CC)CC)c3c4cc(ccc4ccc3[S](O)(=O)=O)[S](O)(=O)=O,-0.6984761490000001,41,117.0,26.991,-0.013831216023,0.010128099575,-0.125601547369,0,17,560.4722237000001,2,6,26,29.0,0.0,468.81374046223175,660.5269999999999,363.401559
A-5457,CCN(CC)C1=C[C@@H]2Oc3cc(N(CC)CC)c(C)cc3C(=C2C=C1C)c4ccccc4C(=O)OC,-7.687222082000001,36,102.0,13.595,-9.7424673e-05,-0.003981234362,-0.036104071434,0,8,448.3444341,2,3,22,27.0,0.0,423.10539508975234,630.1659999999999,302.303641
B-2928,C[C@@H]/1CC(=C/CC2C[C@@H](C[C@]3(CC[C@H](C)C(C)O3)O2)OC(=O)[C@@H]4C=C(C)[C@@H](O)[C@H]5OCC(=C\C=C1)/[C@@]45O)/C,-5.7787,38,108.0,13.613,-0.007414630583,0.017669915268,-0.0506050861589999,0,10,484.3286473,0,7,29,32.0,0.0,309.40767020199,727.168,309.502273
C-1062,CC(C)(C)C1=CC(=CC(=C1SC(C)(C)SC2=C(C=C(O)C=C2C(C)(C)C)C(C)(C)C)C(C)(C)C)O,-8.17,33,99.0,8.045,-0.0055081572,0.006558574294,-0.046394603746,0,10,468.4611976,0,2,20,28.0,0.0,484.61228687398665,611.737,314.759084
A-2596,CC(C)CCC[C@@H](C)CCC[C@@H](C)CCC[C@]1(C)CCc2c(C)c(OC(C)=O)c(C)c(C)c2O1,-5.771545225,34,96.0,10.7,-0.001585478855,-0.003142054944,-0.042610384533,0,9,420.3310277,0,3,12,27.0,0.0,437.5174494776447,741.7080000000001,295.311907
A-2420,CCOC(=O)CC(NC1CCC(CC2CCC(NC(CC(=O)OCC)C(=O)OCC)C(C)C2)CC1C)C(=O)OCC,-5.06653389,41,117.0,19.791,-0.0051300462829999,0.011498002717,-0.069883363081,0,17,528.3414587,2,8,36,33.0,0.0,497.0576993976328,772.577,327.118436
A-2680,[n-]1c2nc3[n-]c(nc4nc(nc5nc(nc1c6ccccc26)c7ccccc57)c8ccccc48)c9ccccc39,-6.983720983,40,114.0,0.006,-1.0810214e-05,-0.011272717362,-0.292722963415,0,8,496.3971745,8,0,14,26.0,0.0,414.7633109491479,631.187,344.82289
A-5474,CCn1nc2cc(cc3C(=O)c4ccccc4c1c23)c5cc6nn(CC)c7c8ccccc8C(=O)c(c5)c67,-4.393183723,38,108.0,1.249,-0.003778474326,-0.000972235419,-0.038777372242,0,6,472.3691715,4,2,21,29.0,0.0,396.8414292623778,642.506,321.668085
A-5673,O=C(c1ccc(Oc2ccccc2)cc1)c3ccc(cc3)C(=O)c4ccc(Oc5ccccc5)cc4,-7.973611776,36,102.0,0.0279999999999999,-0.0043499444,0.008392414543,-0.018925516653,0,6,448.3411685,0,4,12,24.0,0.0,405.2963358003079,612.971,292.937525
A-3318,[O-][S](=O)(=O)c1ccc2c(C=CC(=O)/C2=N/Nc3ccc(N=Nc4ccc(Nc5ccccc5)c(c4)[S]([O-])(=O)=O)c6ccccc36)c1,-1.015630004,46,132.0,34.166,-0.030305599282,0.024070678065,-0.224241574639,0,20,630.5024741000001,5,7,31,29.0,0.0,496.0932651874065,803.3380000000001,400.664704
A-5697,CC\1=NN(C(=O)C1=N/Nc2ccc(cc2Cl)c3ccc(N\N=C4/C(=NN(C4=O)c5ccccc5)C)c(Cl)c3)c6ccccc6,-8.14162673,42,126.0,10.872,-0.000322283143,-0.0059108930319999,-0.028600992477,0,11,599.3018595,8,2,18,31.0,0.0,497.7370673978121,753.33,372.090014
A-5925,COc1ccc(cc1N\N=C2/C(=O)C(=Cc3ccccc23)C(=O)Nc4ccc5NC(=O)Nc5c4)C(=O)Nc6ccccc6,-8.479083332,43,123.0,13.92,-0.003012128203,-0.0029863167959999,-0.056822314713,0,10,548.3807927,6,5,32,31.0,0.0,464.3444363979594,702.954,349.227401
A-5922,COc1ccc(cc1N\N=C2/C(=O)C(=Cc3ccccc23)C(=O)Nc4cc(Cl)ccc4C)C(=O)Nc5ccccc5,-7.752070739,40,117.0,35.012,-0.007305563861,0.007868957327,-0.1047620660229999,0,13,539.8209188999999,4,4,18,26.0,0.0,469.1179651547159,648.012,342.510519
A-5742,COc1ccc(cc1N\N=C2/C(=O)C(=Cc3ccccc23)C(=O)Nc4cc(Cl)ccc4OC)C(=O)Nc5ccccc5,-8.184413465,41,120.0,24.25,-0.000413824573,-0.005498641021,-0.063251377795,0,13,555.8203238,4,5,24,26.0,-0.001,467.38782222403495,711.3589999999999,351.21499
A-5954,CC(=O)C(N=Nc1ccc(cc1Cl)c2ccc(N=NC(C(C)=O)C(=O)Nc3ccccc3)c(Cl)c2)C(=O)Nc4ccccc4,-9.196938503,42,126.0,28.649,-0.003340113919,0.007663663923,-0.033677665124,0,11,603.2872629,6,4,36,32.0,0.0,518.7052588747583,814.3919999999999,374.454354
A-5627,Cc1cc(C)c(Nc2ccc(Nc3c(C)cc(C)cc3C)c4C(=O)c5ccccc5C(=O)c24)c(C)c1,-7.825073045,36,102.0,8.744,-0.001572939975,-0.005123212291,-0.032599087859,0,6,444.3557651,2,2,19,23.0,0.0,431.4654544912656,578.6669999999999,306.461275
A-5521,CCc1cccc(C)c1Nc2ccc(Nc3c(C)cccc3CC)c4C(=O)c5ccccc5C(=O)c24,-7.375301399,36,102.0,8.263,-0.001078458185,-0.004211197527,-0.036547037774,0,4,444.3557651,2,2,17,27.0,0.0,404.6828850733917,586.586,308.93124900000004
A-2768,NC(Cc1ccccc1)=CC(=O)[C@@H](Cc2ccccc2)N(Cc3ccccc3)Cc4ccccc4,-7.663343734,35,99.0,8.96,-0.000156627098,-0.008507599974,-0.022605094457,0,2,428.3563601,2,1,23,30.0,0.0,411.6291246573872,649.243,301.348773
B-2911,CC(C)(C)c1ccc(cc1)C(O)CCCN2CCC(CC2)C(O)(c3ccccc3)c4ccccc4,-6.69,35,99.0,23.396,-0.004701218768,5.3081596e-05,-0.048588501732,0,5,430.3490618,1,2,22,24.0,-0.001,413.85740987466136,656.31,291.5116
A-1177,CC(=O)Oc1ccc(cc1C2C(=O)Oc3ccc(cc23)C(C)(C)CC(C)(C)C)C(C)(C)CC(C)(C)C,-6.692582562,36,102.0,11.648,-0.003866650277,0.006582360568,-0.033240364378,0,7,448.3411685,0,4,23,25.0,0.0,478.5885881526392,584.4,296.155734
B-2929,CCC1O[C@]2(CCC1C)C[C@@H]3C[C@@H](C\C=C(/C)CC(C)/C=C/C=C/4CO[C@@H]5[C@H](O)C(=C[C@@H](C(=O)O3)[C@]45O)C)O2,-4.8772,39,111.0,17.090999999999998,-0.004854082749,0.0075675188749999,-0.050542436858,0,13,496.33938319999993,0,7,27,29.0,0.0,449.2268461976832,704.452,316.850564
B-108,C/C=C(/C)C(=O)O[C@H]1CC[C@@]2(C)[C@@H]3CC[C@H]4[C@]5(O)C[C@H](O)[C@@]6(O)[C@@H](CN7C[C@@H](C)CC[C@H]7[C@@]6(C)O)[C@]5(O)C[C@]24O[C@]13O,-3.0163,42,120.0,23.145,-0.008965621195,0.026346860888,-0.076240535597,0,17,542.3448963,1,9,32,28.0,0.0,57.16303721739809,773.513,330.136724
A-2734,CCCCC(CC)COC(=O)CC(CC(=O)OCC(CC)CCCC)(OC(C)=O)C(=O)OCC(CC)CCCC,-7.057520047000001,40,114.0,29.741,-0.003974408893,0.004843737951,-0.070846563129,0,16,512.3387882000001,0,8,33,31.0,0.0,489.74288609755945,813.497,329.74797
A-2721,CCCCCCCCCCCCCCOC(=O)\C=C\C(=O)OCCCCCCCCCCCCCC,-7.007600997999999,36,102.0,3.103,-0.004077517512,0.001939015105,-0.0360751205679999,0,8,448.3411685,0,4,15,30.0,0.0,429.01984757835055,897.488,309.69752900000003
A-2593,CCCCC(CC)C1CCON1CCOC(=O)NCCCCCCNC(=O)OCCN2OCCC2C(CC)CCCC,-5.790560824,42,120.0,8.343,-0.0068126829779999,0.01207774807,-0.052521054132,0,11,536.3667912,4,6,26,32.0,0.0,473.7705564319144,962.992,348.296433
A-2733,CCCCCCCCCCCCCCOC(=O)CCCCCCC\C=C/CCCCCCCC,-6.98122586,34,96.0,33.261,-0.00261212676,-0.00501077623,-0.045623127315,0,5,416.3423586,0,2,8,27.0,0.0,412.3889416696212,866.123,300.046975
A-2572,CC(C)CCCCCCCCCCOC(=O)CCCCC(=O)OCCCCCCCCCCC(C)C,-5.708288297,36,102.0,3.4330000000000003,-0.004767765602,0.003109842628,-0.031462870627,0,8,448.3411685,0,4,14,28.0,-0.001,434.84439861199866,883.47,306.626396
A-5979,CCCCCCCCCCCCCCCCCC(=O)OCCCCCCCCCCCCCC,-8.983050453999999,34,96.0,32.986,-0.002652134331,-0.005007943153,-0.0457797109609999,0,5,416.3423586,0,2,7,26.0,0.001,412.3467076618947,866.563,300.049414
A-6087,CCCCCCCCCCCCCCCCOC(=O)CCCCCCCCCCCCCCC,-8.754650095,34,96.0,21.139,-0.00299158568,-0.003951388945,-0.044256082073,0,5,416.3423586,0,2,5,25.0,0.0,412.3621824731402,864.944,300.051633
A-2556,CCCCCCCCCCCCCCCCC(CO)CCCCCCCCCCCCCC,-5.66920434,33,93.0,19.268,-0.000298441815,-0.005473076251,-0.036167256839,0,3,400.3429537,0,1,9,32.0,0.0,403.2587192883517,848.102,295.427642
A-5698,COC(=O)c1ccc(cc1N\N=C2/C(=O)C(=Cc3ccccc23)C(=O)Nc4ccccc4OC)C(=O)Nc5cc(Cl)ccc5Cl,-8.175068622000001,44,129.0,3.227,-0.000496677871,-0.0006704128579999,-0.017085355829,0,16,619.2834022000001,4,6,31,32.0,0.0,509.12063733757225,773.137,379.998841
G-882,OC(C1=CC2C5C(C1C2=C(c3ccccc3)c4ccccn4)C(=O)NC5=O)(c6ccccc6)c7ccccn7 ,-3.931,39,111.0,21.472,-0.004749487956,0.00322124174,-0.061455899896,0,9,486.3726091,3,3,20,28.0,0.0,418.6609776356749,626.395,317.790038
A-5601,COc1ccc(cc1N\N=C2/C(=O)C(=Cc3ccccc23)C(=O)Nc4cc(OC)c(Cl)cc4OC)C(=O)Nc5ccccc5,-7.846560339,43,126.0,16.048,-0.0003999657,-0.005704922736,-0.045890451527,0,15,583.8304646,4,6,26,33.0,0.0,489.8285978575549,745.645,366.479448
A-2246,CN(C)c1ccc(cc1)C(O)(c2ccc(cc2)N(C)C)c3ccc(Nc4ccccc4)c5ccccc35,-6.9891355520000005,37,105.0,10.711,-0.000408293076,-0.006898409311,-0.026760240461,0,6,454.3737992,3,1,14,22.0,0.0,430.3021882075404,581.744,313.770134
A-4092,COc1cc(ccc1Nc2nc(Nc3ccc(cc3OC)N=Nc4cccc(c4)[S]([O-])(=O)=O)nc(n2)N(CCO)CCO)N=Nc5cccc(c5)[S]([O-])(=O)=O,-1.600815525,55,159.0,46.143,-0.031699742687,0.026906774652,-0.231980170903,0,29,760.5449408,10,10,36,31.0,0.0,593.5049165558564,1010.614,461.023965
C-2504,CC12CCC3C(CCC4=CC(=O)CCC34)C1CCC2(OC(=O)C5=CC=C(OC6=CC=CC=C6)C=C5)C#C,-6.84,37,105.0,6.608,-0.002659303189,0.002853370198,-0.026322090137,0,6,460.3519044,0,4,22,23.0,0.0,413.7247522454504,644.428,309.449811
B-1434,CC1=C(C=C)/C(NC1=O)=C/c2[nH]c(Cc3[nH]c(\C=C\4NC(=O)C(=C4C)C=C)c(C)c3CCC(O)=O)c(CCC(O)=O)c2C,-4.8127,43,123.0,32.086,-0.0062785953559999,0.0151950566739999,-0.082208706456,0,15,548.3775271000001,4,6,38,34.0,0.0,485.2344762864473,765.8430000000001,353.941187
C-2581,COC1C(CC2CN3CCC4=C([NH]C5=C4C=CC(=C5)OC)C3CC2C1C(=O)OC)OC(=O)C6=CC(=C(OC)C(=C6)OC)OC,-5.97,44,126.0,18.536,-0.002445172202,-0.0016717428359999,-0.069913868458,0,12,568.3623353999999,2,9,34,28.0,0.001,482.1785378915884,812.403,358.80054
B-13,CO[C@H]1[C@@H](C[C@@H]2CN3CCc4c([nH]c5cc(OC)ccc45)[C@H]3C[C@@H]2[C@@H]1C(=O)OC)OC(=O)c6cc(OC)c(OC)c(OC)c6,-3.9208,44,126.0,6.31,-0.002294732405,-0.001030238756,-0.059279232756,0,14,568.3623353999999,2,9,34,28.0,0.001,489.20079962112857,801.7180000000001,357.90211600000004
E-1018,O1C(C)C(O)C(N)C(O)C1OC2C=CC=CC=CC=CCC(C)OC(=O)C=CC(O3)C3CC(O)CC4(O)OC(C(C(=O)O)C(O)C4)C2,-3.21,47,135.0,20.747,-0.010612339822,0.033015511056,-0.074245775825,0,25,618.3532518999999,1,13,43,35.0,0.0,510.9431110133443,850.046,361.3815
C-2296,CC1C\C=C\C=C\C=C\C=C\C(CC2OC(O)(CC(O)CC3OC3/C=C/C(=O)O1)CC(O)C2C([O-])=O)OC4OC(C)C(O)C([NH3+])C4O,-2.21,47,135.0,14.438,-0.010827370275,0.034911412485,-0.045999864964,0,23,618.3532518999999,1,13,44,29.0,0.0,501.99841984939286,842.442,361.303344
A-5578,CC(C)(C)c1ccc(O[P@]2OC[C@]3(CO2)CO[P@](OC3)Oc4ccc(cc4C(C)(C)C)C(C)(C)C)c(c1)C(C)(C)C,-6.813060611,39,117.0,43.945,-0.253074634939,0.005027949191,-0.514598025789,0,19,554.2982382,0,4,19,27.0,0.0,502.69202223002327,728.013,359.959113
A-5758,CCCCC(CC)COC(=O)c1ccc(C(=O)OCC(CC)CCCC)c(c1)C(=O)OCC(CC)CCCC,-8.252098343,39,111.0,4.678,-0.002170506151,-0.0019593809839999,-0.044067572321,0,12,492.3507142,0,6,23,27.0,0.0,480.1328864180737,844.809,330.695554
A-5524,CCCCCCCCSc1nc(Nc2cc(c(O)c(c2)C(C)(C)C)C(C)(C)C)nc(SCCCCCCCC)n1,-7.469064652999999,39,114.0,4.853,-0.001095091613,-0.003281797958,-0.022874563051,0,12,532.5100773,4,1,22,28.0,0.0,510.16136364243897,762.8760000000001,364.761177
A-5477,[O-][N+](=O)c1cc2c3ccccc3C(=O)c4ccc5c6ccc7C(=O)c8ccccc8c9ccc(c6c79)c1c5c24,-4.399238344,39,111.0,6.002000000000001,-0.005974493869,0.009445256932,-0.0429410118609999,0,8,486.3693435,1,4,19,27.0,0.0,395.7405928994541,581.0930000000001,326.336647
A-2521,O=C1c2ccccc2c3ccc4c5ccc6c7ccccc7C(=O)c8ccc(c9ccc1c3c49)c5c68,-5.513312746,36,102.0,8.937000000000001,-0.004220291309,0.001838045535,-0.037330988193,0,4,440.3638303999999,0,2,18,26.0,0.0,369.37533124041903,561.827,309.683875
A-2273,C(Sc1nnc(c2ccccc2)c(n1)c3ccccc3)\C=C\CSc4nnc(c5ccccc5)c(n4)c6ccccc6,-7.025125555,41,120.0,0.667,-8.784483e-06,-0.0082013368889999,-0.015971496482,0,10,556.5348147000001,6,0,18,27.0,0.0,486.0731491749268,726.9810000000001,382.726714
A-5746,Cc1ccc(cc1)N2N=C(C)C(N=Nc3ccc(cc3Cl)c4ccc(N=NC5C(=NN(c6ccc(C)cc6)C5=O)C)c(Cl)c4)C2=O,-8.269885037,44,132.0,12.969,-0.0009022174989999,-0.007031585171,-0.040944785971,0,13,623.3233313,8,2,27,33.0,0.0,528.4647416118662,805.26,396.559803
A-5600,COc1cc(OC)c(NC(=O)C2=Cc3ccccc3C(=N/Nc4cc(ccc4OC)C(=O)Nc5ccc(cc5)C(N)=O)\C2=O)cc1Cl,-7.866240199,47,135.0,29.579,-0.005005351416,0.00652096197,-0.085068440045,0,15,625.8473087,5,7,32,35.0,0.001,526.850905594784,771.8589999999999,384.035474
A-5940,CC(=O)C(N=Nc1ccc(cc1Cl)c2ccc(N=NC(C(C)=O)C(=O)Nc3ccccc3C)c(Cl)c2)C(=O)Nc4ccccc4C,-8.914844079,44,132.0,26.14,-0.005218482099,0.005556840353,-0.048955383875,0,16,627.3087347000001,6,4,30,36.0,0.001,532.3339538614733,809.55,390.397051
A-5813,COc1ccccc1NC(=O)C(N=Nc2ccc(cc2Cl)c3ccc(N=NC(C(C)=O)C(=O)Nc4ccccc4OC)c(Cl)c3)C(C)=O,-8.423596194,46,138.0,30.245,-0.004060096005,0.005761412642,-0.051992134085,0,16,659.3075445000001,6,6,35,33.0,0.0,559.1374940980569,889.2139999999999,403.5505
A-2975,COc1nc(Nc2ccccc2)nc(Nc3ccc(\C=C\c4ccc(Nc5nc(Nc6ccccc6)nc(OC)n5)cc4[S]([O-])(=O)=O)c(c3)[S]([O-])(=O)=O)n1,-1.7615101480000002,54,156.0,22.095,-0.0208041930459999,0.013438324988,-0.217055433559,0,22,740.5568668999999,10,8,35,40.0,0.0,600.0907230097233,926.315,452.888591
A-2798,COc1cc(ccc1N=NC(C(C)=O)C(=O)Nc2ccccc2)c3ccc(N=NC(C(C)=O)C(=O)Nc4ccccc4)c(OC)c3,-8.616766696000001,46,132.0,27.16,-0.002919664673,0.007079628075,-0.055039643846,0,10,588.4016694000001,6,6,43,37.0,0.0,528.0222669743841,813.821,376.017399
A-3074,CCCCCCCCCCCCCCCCOc1ccccc1C(=O)CC(=O)Nc2scc(n2)c3ccccc3,-4.847279535,39,114.0,21.292,-0.001112187782,-0.002822841776,-0.0244349375559999,0,10,516.4414291999999,2,3,13,33.0,0.0,468.34682112301874,841.8889999999999,348.407826
B-896,CCN1C[C@]2(COC)[C@H](O)C[C@H](OC)[C@@]34[C@@H]5C[C@]6(O)[C@@H](OC)[C@H](O)[C@](OC(C)=O)([C@@H]([C@H](OC)[C@H]23)C14)[C@H]5[C@H]6OC(=O)c7ccccc7,-3.3187,46,132.0,20.03,-0.007192433287,0.013485271693,-0.102440387528,0,19,598.3651779,1,11,33,32.0,0.0,504.58452234214064,673.043,354.374232
A-2547,Cc1cc(CCC(=O)OCCOCCOCCOC(=O)CCc2cc(C)c(O)c(c2)C(C)(C)C)cc(c1O)C(C)(C)C,-5.768464941,42,120.0,5.854,-0.006231724829,0.016027945227,-0.043033096442,0,20,536.3602599999999,0,8,31,25.0,0.0,496.3172679164118,886.245,339.479701
A-2704,CC(C)(C)c1cc(CCC(=O)NNC(=O)CCc2cc(c(O)c(c2)C(C)(C)C)C(C)(C)C)cc(c1O)C(C)(C)C,-7.04359803,40,114.0,13.297,-0.007922229689,0.006767612441,-0.069963716317,0,13,500.3760467,2,4,34,30.0,0.0,501.4887811361634,812.065,329.076766
A-2792,CCCCC(CC)COCCCNC(=O)Nc1cccc2c(NC(=O)NCCCOCC(CC)CCCC)cccc12,-8.06807152,42,120.0,12.97,-0.000971121722,-0.004962915318,-0.077008662972,0,8,528.3894531000001,4,4,24,30.0,0.0,495.0136884427913,878.1239999999999,355.347168
A-2569,CC(C)CCCCCCCCCCOC(=O)c1ccccc1C(=O)OCCCCCCCCCCC(C)C,-5.724958732,38,108.0,6.928,-0.003746997011,-0.000229377426,-0.048095514044,0,9,472.3626403,0,4,15,29.0,0.0,454.9565886687061,851.357,323.024221
A-2625,CCCCCCCCCCCCCCCOC(=O)/C=C/C(=O)OCCCCCCCCCCCCCCC,-6.553787585,38,108.0,7.213999999999999,-0.005086316934,0.002181731806,-0.045689406275,0,8,472.3626403,0,4,10,25.0,0.0,452.8559153373977,941.006,327.556234
A-2577,CCCCCCCCCCCCCCCCOC(=O)OOC(=O)OCCCCCCCCCCCCCCCC,-5.756557,40,114.0,10.784,-0.002787104448,0.005523297804,-0.0276224042139999,0,11,504.3614501,0,6,18,28.0,-0.001,472.4686092082258,801.7719999999999,335.449385
A-2769,CCCCCCCCCCCCCCCC(=O)NCCCCCCCC\C=C/CCCCCCCC,-7.704078415,36,102.0,11.718,-0.003505937683,-0.007592537382,-0.049639155264,0,4,438.37112869999993,1,1,8,34.0,0.0,437.1450280141591,916.244,319.886654
A-213,CCCCN(CCCC)c1ccc2c(Oc3cc(C)c(Nc4ccccc4)cc3C25OC(=O)c6ccccc56)c1,-7.404250358,40,114.0,9.06,-0.002277350584,-0.0020170579389999,-0.041841138435,0,9,496.3873777,2,3,22,32.0,0.0,446.36885032869066,680.2719999999999,335.617042
C-2580,CC(C)C1(NC(=O)C2CC3C(CC4=C[NH]C5=C4C3=CC=C5)N(C)C2)OC6(O)C7CCCN7C(=O)C(CC8=CC=CC=C8)N6C1=O,-5.27,45,129.0,40.364,-0.005990267176,0.001374773165,-0.1038803192589999,0,13,570.4062972,5,5,30,26.0,0.0,491.78178723017584,737.164,363.414586
B-2368,COC(=O)[C@@]1(O)OC[C@@]23[C@H](C[C@@H](OC(C)=O)[C@]4(CO[C@@H]([C@@H](O)[C@](C)([C@H]12)[C@]56O[C@@]5(C)[C@H]7C[C@@H]6O[C@@H]8OC=C[C@]78O)[C@H]34)C(=O)OC)OC(=O)C(/C)=C/C,-3.4428,51,147.0,19.23,-0.003210737367,0.017291540307,-0.0693127288279999,0,32,676.3662352000001,0,16,34,27.0,0.001,558.9742011163777,683.738,367.968766