Name,SMILES,Solubility,AtomNum,DegFreedom,Dipole,Ghb,Gsasa,Gsolv,HNum,LP,MolWt,NNum,ONum,PiCenters,PiDeloc,Quadrupole,Volume,SASA,Polarizabilty
A-3292,CCOc1ccc(C)cc1N=Nc2ccc(N=Nc3cccc(c3)[S]([O-])(=O)=O)c4ccccc24,-1.847135544,34,96.0,34.178000000000004,-0.014937187161,0.006397771844,-0.099280548547,0,15,452.3576174,4,4,16,20.0,-0.001,382.646006707034,615.735,292.916016
B-3123,CC1(C)CNC(=NC1)N\N=C(/C=C/c2ccc(cc2)C(F)(F)F)\C=C\c3ccc(cc3)C(F)(F)F,-7.916,35,99.0,6.218,-0.000590743038,0.004025249274,-0.026029185167,0,21,470.2856293,4,0,21,23.0,0.0,383.5126615504248,709.88,269.384493
A-350,CCOCCCN[S](=O)(=O)c1ccc(Oc2cc(O)c3C(=O)c4ccccc4C(=O)c3c2N)cc1,-4.787470096,35,99.0,4.408,-0.012489884657,0.018517707701,-0.06885308248,0,13,472.34242580000006,2,7,29,28.0,0.0,384.91607294836473,653.87,292.799792
B-2096,CCN1C=CC(=CC=Cc2cc[n+](CC)c3ccccc23)c4ccccc14,-2.6816,27,75.0,1.564,-2.5628570000000004e-06,-0.007976044103,-0.0911647081,0,2,328.2818039,2,0,15,20.0,0.0,307.61941077177016,547.691,235.847506
F-742,CC1=CC=CC(CN2CCN(C(C3=CC=CC=C3)C3=CC=C(Cl)C=C3)CC2)=C1,-4.63,27,78.0,8.977,-2.114237e-06,-0.0056856686739999,-0.014454669948,0,6,363.7347415,2,0,15,18.0,0.0,340.46219535948217,517.505,247.044384
C-2495,COC1=CC=C2C=C(C=CC2=C1)C(C)C(=O)OC(C)OC(=O)C(N)CC3=CC=CC=C3,-3.5,31,87.0,40.631,-0.003260392885,-0.002062979869,-0.1246475347529999,0,11,394.2721253,1,5,21,18.0,0.0,365.8617018293192,570.053,255.696436
C-2482,COC1=CC=C2C=C(C=CC2=C1)C(C)C(=O)OCCOC(=O)C(N)CC3=CC=CC=C3,-3.75,31,87.0,45.019,-0.004480105816,0.001301363346,-0.107899301138,0,12,394.2721253,1,5,19,19.0,0.0,354.13769015924635,631.113,253.498525
B-3256,CCOc1ccc(cc1)C(C)(C)COCc2cccc(Oc3ccccc3)c2,-8.5758,28,78.0,17.285,-0.000237433725,0.000239513573,-0.020036079912,0,5,348.2666123,0,3,16,18.0,0.0,336.5082831260686,541.9780000000001,233.480308
A-2129,CC(C)(c1ccc(OCCOC(=O)C=C)cc1)c2ccc(OCCOC(=O)C=C)cc2,-5.999481603,31,87.0,2.285,-0.003974132408,0.009548777842,-0.033098257591,0,9,396.264827,0,6,24,24.0,0.0,363.0102032187359,651.276,255.304429
B-3401,CCOc1ccc(cc1)[Si](C)(C)CCCc2ccc(F)c(Oc3ccccc3)c2,-8.6113,29,81.0,4.077,-0.000578715701,0.000106303619,-0.043155417149,0,8,379.3511092,0,2,18,20.0,0.0,364.2975546992954,603.049,261.981162
A-9,C1OC1CN(CC2CO2)c3ccc(Cc4ccc(cc4)N(CC5CO5)CC6CO6)cc3,-4.662064583,31,87.0,14.796,-0.003618593065,0.015283197205,-0.018817984377,0,5,392.2794236,2,4,28,26.0,0.0,346.58256712031425,644.865,254.187452
A-831,CN(C)c1ccc(cc1)[C+](c2ccc(cc2)N(C)C)c3ccc(cc3)N(C)C,-2.008588463,28,78.0,2.369,-1.7327860000000002e-06,-0.008243520094,-0.091847913885,0,6,342.28850710000006,3,0,6,18.0,0.0,336.46983100547504,558.439,239.481792
C-866,CC(=O)OCC(=O)C1(O)C(CC2C3CCC4=CC(=O)C=CC4(C)C3(F)C(O)CC12C)OC(C)=O,-4.13,34,96.0,10.386,-0.006492397033,0.02200210342,-0.047546851505,0,16,447.26204,0,8,23,25.0,0.0,389.76014926092,592.488,264.826863
B-4576,CC(=O)OCC(=O)[C@@]1(O)[C@@H](C[C@H]2[C@@H]3CCC4=CC(=O)C=C[C@]4(C)[C@@]3(F)[C@@H](O)C[C@]12C)OC(C)=O,-4.1297,34,96.0,8.817,-0.007428852133,0.024480320194,-0.033353912714,0,17,447.26204,0,8,30,22.0,0.0,385.42651142283125,633.717,260.559117
A-2012,CN(C)c1ccc(cc1)C(c2ccc(cc2)N(C)C)c3ccc(cc3)N(C)C,-5.458398412999999,28,78.0,3.073,-2.722456e-06,-0.0082387396959999,-0.0202531959569999,0,6,342.28850710000006,3,0,11,18.0,-0.001,336.70059930513384,558.252,243.255378
A-2715,CC(C)c1cccc(C(C)C)c1N=C=Nc2c(cccc2C(C)C)C(C)C,-6.860411082000001,27,75.0,8.447000000000001,-3.184803e-06,-0.007967486483,-0.0188535825549999,0,5,328.2818039,2,0,13,22.0,0.001,336.70991440822473,521.31,232.04569300000003
C-1860,CC(C)(C)C(=O)OC1(CCC2C3CCC4=CC(=O)CCC4C3CCC12C)C#C,-7.16,28,78.0,13.005,-0.002201728439,0.002188500958,-0.03723332773,0,6,348.2666123,0,3,15,19.0,0.0,325.2545780209394,513.745,230.744949
A-5941,CCCCC(CC)CN[S](=O)(=O)c1ccc(cc1)N=NC2=C(O)N(CCCC)C(=O)C(=C2C)C#N,-8.797313427,35,99.0,16.695,-0.010819261367,0.0053969094649999,-0.100950418477,0,13,466.3643206,5,4,35,26.0,0.0,403.09636007123567,755.525,299.21274
A-2555,CCc1cc(Cc2cc(CC)cc(c2O)C(C)(C)C)c(O)c(c1)C(C)(C)C,-5.566509377999999,27,75.0,4.088,-0.002254970055,0.000674602182,-0.033973030604,0,8,332.26720730000005,0,2,20,23.0,-0.001,341.3629207962178,584.589,231.770973
A-2677,CC1(OCCO1)C2CCC3C4=CC=C5CC6(CCC5(C)C4CCC23C)OCCO6,-6.700119715,29,81.0,6.127000000000001,-0.004949662802,0.010016648248,-0.0352185083399999,0,4,364.2660172,0,4,23,24.0,-0.001,341.286351617039,572.692,241.956922
C-1232,CCC(C)(C)C(=O)OC1CC(C)C=C2C=CC(C)C(CCC3CC(O)CC(=O)O3)C12,-5.48,30,84.0,25.792,-0.005196363242,0.008420099743,-0.079487758678,0,13,380.2654221,0,5,16,18.0,0.0,343.863963032922,516.893,243.18956
B-3253,CCC(C)(C)C(=O)O[C@H]1C[C@@H](C)C=C2C=C[C@H](C)[C@H](CC[C@@H]3C[C@@H](O)CC(=O)O3)[C@@H]12,-7.1447,30,84.0,23.688,-0.004226194073,0.007355587672,-0.063779312223,0,11,380.2654221,0,5,21,23.0,0.0,353.6001341112284,519.8330000000001,247.69284
A-2443,CCCCCCCCCOC(=O)c1ccccc1C(=O)OCCCCCCCC,-4.780941415,29,81.0,17.447,-0.003127456511,0.001182470766,-0.033822357672,0,8,364.2660172,0,4,13,24.0,0.0,338.8644035214715,670.133,245.898394
A-5523,CCCCCCCCSCc1cc(C)c(O)c(CSCCCCCCCC)c1,-7.327113617,27,78.0,3.898,-0.001536912787,-0.000582547151,-0.056070252114,0,7,380.3973772,0,1,14,23.0,0.0,357.3393242008973,717.078,272.665713
B-145,CC(=O)N(O)CCCCCNC(=O)CCC(=O)N(O)CCCCCNC(=O)CCC(=O)N(O)CCCCCN,-1.6695,39,111.0,27.019,-0.017530127327,0.0289227045239999,-0.101803787775,0,17,512.3038561000001,6,8,32,29.0,-0.001,432.8714880546337,874.2539999999999,303.770749
A-2493,CCCCCCCCCCCCCCCCCCCCCC(=O)OCC(O)CO,-6.91873366,29,81.0,64.91199999999999,-0.008478162143,0.0093354194799999,-0.114174685242,0,8,364.2660172,0,4,10,20.0,0.001,342.9354444645402,719.93,244.096191
A-2060,O=C1n2c3ccccc3nc2c4ccc5c6nc7ccccc7n6C(=O)c8ccc1c4c58,-5.633055848,32,90.0,2.33,-0.002959315576,-0.000216532049,-0.026675611877,0,6,400.3047561,4,2,18,18.0,0.0,320.8379556364331,514.513,266.063127
A-5625,O=C1n2c3ccccc3nc2c4ccc5C(=O)n6c7ccccc7nc6c8ccc1c4c58,-7.757994585,32,90.0,0.0,-0.0029868238669999,-0.000209741226,-0.026301318842,0,6,400.3047561,4,2,18,19.0,0.0,320.82387993051395,514.479,266.037999
A-5998,CN1C(=O)c2ccc3c4ccc5C(=O)N(C)C(=O)c6ccc(c7ccc(C1=O)c2c37)c4c56,-7.718509993,32,90.0,0.266,-0.005199499238,0.0135843356749999,-0.025898274434,0,10,404.2901595,2,4,16,14.0,0.001,326.3891331395046,524.808,264.267776
A-2016,O=C1c2cccc(Sc3ccccc3)c2C(=O)c4c(Sc5ccccc5)cccc14,-5.517335042999999,29,84.0,9.687,-0.002752412015,0.004091770262,-0.018013201174,0,8,408.40751810000006,0,2,15,23.0,0.0,349.76943462364784,509.728,276.596693
A-5818,Nc1c(Oc2ccccc2)c(Oc3ccccc3)c(N)c4C(=O)c5ccccc5C(=O)c14,-8.271656595,32,90.0,3.414,-0.0007030188379999,0.000196932646,-0.0093374101049999,0,8,404.2901595,2,4,13,22.0,0.0,352.37066592547615,511.194,263.570281
A-150,[O-][S](=O)(=O)c1ccc(N\N=C\2C=CC(=O)C(=N/Nc3ccc(c4ccccc34)[S]([O-])(=O)=O)\C2=O)c5ccccc15,-2.603841144,40,114.0,5.152,-0.0242195340909999,0.02461251017,-0.240126841158,0,20,560.4307603999999,4,8,18,26.0,0.0,428.8403421553009,688.793,344.64364700000004
A-5785,CC(=O)Nc1ccc(NC(=O)C2=Cc3ccccc3C(=N/Nc4cc(ccc4Cl)C(N)=O)/C2=O)cc1,-7.304443807,35,102.0,20.013,-0.004515543148,0.007712140142,-0.054504546283,0,10,481.7632067,5,4,33,30.0,-0.001,403.2650286870887,683.875,295.578724
A-2248,O=C(Nc1ccccc1SSc2ccccc2NC(=O)c3ccccc3)c4ccccc4,-6.9782870610000005,31,90.0,4.718999999999999,-0.002557501042,0.001103695634,-0.035789543239,0,8,436.4209245,2,2,18,20.0,0.001,376.2610338904112,515.933,293.452686
A-3125,Cc1ccc(cc1[S]([O-])(=O)=O)[S](=O)(=O)c2cc(NC(=O)C(Br)=C)ccc2N=Nc3c(N)ccc4cc(ccc34)[S]([O-])(=O)=O,-1.894836231,42,123.0,25.98,-0.0290330543899999,0.02583850078,-0.201010551284,0,32,688.3984805,4,9,18,18.0,0.0,493.539193876007,724.944,390.22484
B-3091,CCOc1ccc(cc1)C2(CC2(Cl)Cl)C(=O)OC(C#N)c3cccc(Oc4ccccc4)c3,-6.7243,32,93.0,10.38,-0.001165986634,0.000725257676,-0.018144978865,0,15,461.1893314,1,4,19,19.0,0.0,391.44048141666224,614.559,282.678483
B-3381,CC1(C)[C@@H](\C=C/C(=O)OC(C(F)(F)F)C(F)(F)F)[C@H]1C(=O)O[C@H](C#N)c2cccc(Oc3ccccc3)c2,-7.4325,38,108.0,18.989,-0.00331503267,0.014204267397,-0.031277553338,0,29,520.2732802,1,5,19,23.0,0.0,407.7632623381792,676.6,279.089889
B-3544,CC(C)C(C(=O)OC(C#N)c1cccc(Oc2ccc(Br)cc2)c1)c3ccc(OC(F)F)cc3,-8.1731,33,96.0,32.122,-0.000488311647,0.0008245245579999,-0.0435703313,0,15,508.1837904,1,4,18,22.0,0.0,395.4069071509552,660.1060000000001,286.578249
B-3154,CC(C)C(Nc1ccc(cc1Cl)C(F)(F)F)C(=O)OC(C#N)c2cccc(Oc3ccccc3)c2,-8.0025,34,99.0,10.209,-0.001256563408,0.002422568028,-0.020129313343,0,19,480.7389016,2,3,16,21.0,0.0,394.38593751075103,560.452,282.315262
A-5895,CCOc1ccccc1NC(=O)C2=Cc3ccccc3C(=N/Nc4ccc(cc4)C(N)=O)\C2=O,-7.581973548,34,96.0,11.267,-0.0044833037939999,0.007691333133,-0.0471185327159999,0,7,432.3035659,4,4,20,25.0,0.0,380.0078304560578,577.873,274.449928
B-3164,CC(C)C(C(=O)OC(C#N)c1cccc(Oc2ccccc2)c1)c3ccc(OC(F)F)cc3,-6.8765,33,93.0,15.935,-0.000316569274,0.000996269429,-0.030003189559,0,13,428.2802626,1,4,15,23.0,0.0,374.28970223221415,619.19,265.247249
A-2828,CC(Nc1ccc(N\N=C\2C=C(c3ccccc3C2=O)[S]([O-])(=O)=O)c(C)c1)C(=O)c4ccccc4,-1.812900622,35,99.0,20.692,-0.008374028774,0.01022520975,-0.107747210443,0,14,466.361055,3,5,21,21.0,-0.001,399.8188359745628,593.582,295.442496
A-3820,NC(=O)Nc1cc(Nc2nc(F)nc(NCCOCC[S](=O)(=O)C=C)n2)ccc1N=Nc3cc4c(cc(cc4[S]([O-])(=O)=O)[S]([O-])(=O)=O)cc3[S]([O-])(=O)=O,-0.414559724,53,153.0,18.885,-0.048778002364,0.048879953675,-0.464086773508,0,42,793.589279,9,13,39,35.0,0.0,575.9862628529845,961.885,455.622888
A-2563,CC(C)(C)c1ccc2oc(nc2c1)c3sc(cc3)c4oc5ccc(cc5n4)C(C)(C)C,-5.634046793,31,87.0,1.3530000000000002,-0.000278269256,-0.003948626976,-0.0108836649799999,0,9,404.3561371,2,2,19,21.0,0.0,367.2688506085595,598.143,267.925882
A-2662,Cc1cc(C)c(c(C)c1)C(=O)[P](=O)(C(=O)c2c(C)cc(C)cc2C)c3ccccc3,-6.621667442000001,29,84.0,6.343,-0.000244466109,-0.000466430022,-0.008849272593,0,8,391.2511102,0,2,19,22.0,0.0,378.33603732070185,486.404,262.64981800000004
C-968,C1CN(CCN1C\C=C\C2=CC=CC=C2)C(C3=CC=CC=C3)C4=CC=CC=C4,-4.2,28,78.0,17.11,-1.281761e-06,-0.00808363509,-0.0252042860779999,0,0,340.2925398,2,0,16,19.0,0.0,329.86819382697337,525.51,243.95433
A-4238,COc1cc(Nc2c(cnc3cc(OCCCN4CCN(C)CC4)c(OC)cc23)C#N)c(Cl)cc1Cl,-4.8795513260000005,35,102.0,18.273,-0.000726017378,-0.002068550033,-0.037674659895,0,15,501.2167394,5,3,17,21.0,0.0,427.21445540085807,635.516,305.539606
C-2460,CCC(/C1=CC=CC=C1)=C(\C2=CC=CC=C2)C3=CC=C(OCCN(C)C)C=C3,-8.49,28,78.0,4.041,-4.7162748e-05,-0.005298422773,-0.0132693355129999,0,4,342.2852415,1,1,15,21.0,0.001,331.30114594874345,530.648,243.853866
C-772,CC12CCC3C(CCC4=CC(=O)CCC34C)C1CCC2OC(=O)C5=CC=CC=C5,-4.48,29,81.0,9.744,-0.004217396718,0.003668022212,-0.044761985674,0,5,360.2773482,0,3,15,18.0,0.0,341.09259440869806,548.722,245.486776
A-5499,CC(C)(O)C(=O)c1ccc(cc1)C2(C)CC(C)(C)c3cc(ccc23)C(=O)C(C)(C)O,-5.93729046,30,84.0,4.151,-0.003723018952,0.005703003145,-0.036992655571,0,9,376.27675310000006,0,4,20,19.0,0.0,370.50086098508416,572.182,249.057871
A-5500,CC(C)(O)C(=O)c1ccc(cc1)C2(C)CC(C)(C)c3ccc(cc23)C(=O)C(C)(C)O,-5.963849487999999,30,84.0,5.268,-0.005002733114,0.012473914379,-0.029080646074,0,9,376.27675310000006,0,4,16,18.0,0.0,373.4452935302953,470.12,241.512932
C-2246,CC1CC2C3CCC(O)(C(=O)COC(=O)CCC(O)=O)C3(C)CC(O)C2C4(C)C=CC(=O)C=C14,-4.2,34,96.0,64.157,-0.0149686962679999,0.031200592074,-0.189020125116,0,15,440.2743728,0,8,27,22.0,0.0,388.7644355805469,649.302,268.991507
A-2610,CCC(C)CCCOC(=O)CCc1cc(n2nc3ccccc3n2)c(O)c(c1)C(C)(C)C,-6.163940179,32,90.0,8.004,-0.003028270878,0.000310743833,-0.037372077465,0,11,402.2974578,3,3,14,25.0,0.0,370.09440875976713,662.6389999999999,264.44466600000004
B-1599,CC(C)(C)C(=O)OCC(=O)C1(O)CCC2C3CCC4=CC(=O)C=CC4(C)C3C(O)CC12C,-4.5835,32,90.0,19.135,-0.004421057295,0.015135947627,-0.076309934846,0,10,408.2755629,0,6,23,22.0,0.0,378.1706136620484,598.149,258.35603100000003
A-6017,CCCC(c1cc(c(O)cc1C)C(C)(C)C)c2cc(c(O)cc2C)C(C)(C)C,-7.980671352999999,28,78.0,9.218,-0.004594674531,0.003642745893,-0.058452639139,0,11,344.2779432,0,2,10,15.0,0.001,350.33423611096833,515.785,225.497886
A-2359,CCCCCCCCCCCCCCCCOC(=O)Oc1c(Cl)cc(cc1Cl)C(=O)OCC,-7.133803789,31,93.0,14.844,-0.004430156909,0.008219029004,-0.045139298793,0,16,463.1820331999999,0,5,14,22.0,0.0,394.7266737954215,751.346,288.727553
B-1450,C[C@H](CCC(=O)NCC(O)=O)[C@H]1CC[C@H]2[C@@H]3[C@H](O)C[C@@H]4C[C@H](O)CC[C@]4(C)[C@H]3CC[C@]12C,-5.1546,32,90.0,5.843999999999999,-0.0061046856,0.015559042001,-0.028477845082,0,12,406.2828612,1,5,27,22.0,0.0,360.2167908322042,631.977,260.542878
B-3096,C[C@H](CCC(=O)NCC(O)=O)[C@H]1CCC2C3[C@@H](O)C[C@@H]4C[C@H](O)CC[C@]4(C)C3CC[C@]12C,-5.5225,32,90.0,8.527000000000001,-0.007999169924,0.01538964409,-0.051219348274,0,10,406.2828612,1,5,26,24.0,0.0,380.37890441907393,613.72,262.66764700000004
E-1015,O=C(NCC(=O)O)CCC(C(C(C(C(C(C(C(C1)CC(O)C2)(C2)C)C3)C1O)C4)(C3O)C)C4)C,-5.15,33,93.0,2.805,-0.0075768978799999,0.021253768639,-0.032688052799,0,14,422.2822661,1,6,27,24.0,-0.001,379.6569907827215,614.016,262.320727
B-972,C[C@H](CCC(=O)NCC(O)=O)[C@H]1CC[C@H]2[C@@H]3[C@H](O)C[C@@H]4C[C@H](O)CC[C@]4(C)[C@H]3C[C@H](O)[C@]12C,-5.1495,33,93.0,8.084,-0.006046048791,0.020521566041,-0.0288054836079999,0,12,422.2822661,1,6,27,22.0,0.0,383.0162625602249,636.7040000000001,267.011014
A-2188,CC(C)CCCCCCCOP(OCCCCCCCC(C)C)Oc1ccccc1,-6.382029913999999,29,84.0,40.355,-0.17018089304,-0.0003602233939999,-0.31770549869,0,7,391.2511102,0,2,11,24.0,0.0,390.1476686282468,711.9680000000001,276.46866800000004
A-1743,CC1(C)CC(CC(C)(C)N1)N(CCCCCCN(C=O)C2CC(C)(C)NC(C)(C)C2)C=O,-1.539955769,32,90.0,27.033,-8.5090551e-05,0.00145434124,-0.105827557414,0,5,400.3047561,4,2,32,24.0,0.0,409.2556836149489,710.834,275.314965
A-2622,CCCCCCCCCCCC(=O)OCCOCC(OCCO)C1OCC(OCCO)C1OCCO,-6.417202562999999,36,102.0,17.748,-0.004237444202,0.017297778029,-0.0328393049809999,0,14,472.2731826,0,10,23,30.0,0.0,402.4334698467179,732.21,281.249917
A-1390,CCCCC(CC)COC(=O)CCCCCCCCC(=O)OCC(CC)CCCC,-3.329074326,30,84.0,4.84,-0.0020368204999999,0.003055957148,-0.034073658973,0,8,376.27675310000006,0,4,24,28.0,0.001,371.0185872590324,740.137,256.931907
A-542,CCCCCCCC\C=C/CCCCCCCC(=O)N(CCCC)CCCC,-4.788985441,28,78.0,26.755,-0.002255062741,-0.005051109973,-0.0539931447229999,0,5,342.2852415,1,1,12,23.0,0.0,343.8063213684204,713.725,249.23755
A-2702,CCCCCCCCCCCCCCCCCC(=O)OCCCCCCCC,-6.8994921960000015,28,78.0,30.527,-0.002642832798,-0.003013360479,-0.0465661298159999,0,5,344.2779432,0,2,9,22.0,0.0,340.2542315961025,725.454,246.012881
B-1425,CCCCCCCCCCCCCCCCCCCCCCCCCC,-8.3339,26,72.0,2.617,-3.527908e-06,-0.009966727225,-0.030145750925,0,2,312.2791334,0,0,0,24.0,0.0,323.42078644811124,694.9939999999999,236.601232
A-6048,Clc1c(Cl)c(Cl)c2C(=O)C(c3ccc4cccc(N5C(=O)c6c(Cl)c(Cl)c(Cl)c(Cl)c6C5=O)c4n3)C(=O)c2c1Cl,-7.727396092999999,36,114.0,10.114,-0.0034902198489999,0.011213446668,-0.039333596652,0,33,687.9136601,2,4,12,18.0,0.0,471.0937349219229,664.944,381.357907
A-4641,Cc1ccc(cc1)[S](=O)(=O)Oc2ccc(Nc3cc(c(N)c4C(=O)c5ccccc5C(=O)c34)[S]([O-])(=O)=O)cc2,-2.622198475,39,111.0,23.411,-0.017769145914,0.020914135989,-0.14008834023,0,21,544.4280899,2,8,16,23.0,0.0,429.6643956583471,639.688,336.922826
A-228,OCC1=CC(=N/Nc2ccc(c3ccccc23)[S]([O-])(=O)=O)\C(=O)/C(=N/Nc4ccc(c5ccccc45)[S]([O-])(=O)=O)C1=O,-0.817164744,42,120.0,1.153,-0.0249309163169999,0.030754800983,-0.235428482388,0,25,588.4409012,4,9,17,22.0,0.0,449.7578747902465,706.816,357.380901
C-1523,CC(C)N=C1C=C2N(C3=CC=C(Cl)C=C3)C4=C(C=CC=C4)N=C2C=C1NC5=CC=C(Cl)C=C5,-6.24,31,93.0,10.134,-3.143635e-06,-0.005877519841,-0.022316158278,0,8,451.2225573,4,0,12,22.0,0.001,391.5305493382238,606.924,297.232482
A-4293,CCN1C(=O)C(=N/Nc2cc(Nc3nc(Cl)nc(Nc4ccc(c(Nc5nc(N)nc(Cl)n5)c4)[S]([O-])(=O)=O)n3)c(cc2[S]([O-])(=O)=O)[S]([O-])(=O)=O)\C(=C(C(N)=O)C1=O)C,-0.759001213,56,168.0,33.739000000000004,-0.031076426944,0.02882490653,-0.403196326519,0,41,879.4768107000001,12,12,38,35.0,0.001,636.1017854114542,885.515,496.403627
A-5624,CN[S](=O)(=O)c1cc(OC)c(N\N=C2/C(=O)C(=Cc3ccccc23)C(=O)Nc4ccc5NC(=O)Nc5c4)cc1OC,-7.89163614,41,117.0,33.037,-0.007534152415,0.01011139286,-0.076129764772,0,18,552.3907104,6,7,27,26.0,0.0,447.8634784741136,679.885,336.20117400000004
A-4396,COc1cc(ccc1NC(=O)Nc2ccc(cc2OC)N=Nc3cccc(c3)[S]([O-])(=O)=O)N=Nc4cccc(c4)[S]([O-])(=O)=O,-0.714875651,44,126.0,18.764,-0.029097190414,0.020454063262,-0.199723798239,0,26,616.4543077000001,6,9,25,29.0,0.0,483.2295195753897,799.304,373.809263
A-2802,CCCCCCOc1ccc(c(O)c1)c2nc(nc(n2)c3ccccc3)c4ccccc4,-9.15181097,32,90.0,9.434,-0.0023465173389999,-0.002675196883,-0.04029089983,0,7,398.3087888,3,2,20,23.0,0.0,357.139957543724,646.679,267.826606
C-2587,CC(C)C1=C(Br)C(=C(C)C=C1C2(O[S](=O)(=O)C3=C2C=CC=C3)C4=CC(=C(O)C(=C4C(C)C)Br)C)O,-5.18,34,99.0,14.994000000000002,-0.01247560427,0.0113199356199999,-0.118703975121,0,20,596.1587369,0,5,13,18.0,0.0,422.9632230670823,549.8330000000001,321.348043
A-5043,CCOC(=O)c1nn(c2ccc(OC)cc2)c3C(=O)N(CCc13)c4ccc(cc4)N5CCCCC5=O,-4.628205844,36,102.0,34.626,-0.002969463075,-0.0003707096319999,-0.091810692216,0,8,460.3137067,4,5,25,24.0,0.0,387.6087433682569,634.616,294.450948
A-4250,CCNc1cc2[o+]c3cc(NCC)c(C)cc3c(c2cc1C)c4ccccc4C(=O)OC,-1.390984611,32,90.0,17.507,-0.000156788717,-0.00331880886,-0.10108949537,0,9,400.3014905,2,3,20,23.0,0.0,375.87492060745046,595.403,264.47776600000003
C-2244,CC12CCC3C(CCC4=CC(=O)CCC34)C1CCC2(OC(=O)C5=CC=CC=C5)C#C,-7.75,30,84.0,13.643,-0.003221973075,0.002392509279,-0.042277372197,0,7,372.2880841,0,3,16,21.0,0.0,338.56348410409174,543.393,247.632781
A-2312,CCN(CCOc1ccc(cc1)C2CCCCC2)c3ccc(C=C(C#N)C#N)c(C)c3,-8.386094856,31,87.0,3.985,-5.172846899999999e-05,-0.01069504768,-0.02872650682,0,5,382.3093838,3,1,25,22.0,0.001,360.5480582478492,642.749,263.33545
A-2648,CCCC1CCC(CC1)C2CCC(CC2)c3ccc(c(F)c3)c4cc(F)c(F)c(F)c4,-6.6360312960000005,31,87.0,16.660999999999998,-0.000466493381,0.002928841874,-0.024276931302,0,13,400.2834819,0,0,12,18.0,0.0,337.9652088933397,611.893,252.583524
A-5106,O=C1CCCCCN1C(=O)Nc2ccc(Cc3ccc(NC(=O)N4CCCCCC4=O)cc3)cc2,-7.763261262,35,99.0,13.872,-0.006379084312,0.01089305168,-0.064977951096,0,11,444.3143018,4,4,28,22.0,0.0,375.3751257830007,662.775,285.986359
A-1835,C[C@@H]1O[C@@H](O[C@@H]2[C@@H](O)[C@H](O)[C@@H](CO)O[C@H]2Oc3cc(O)c4C(=O)C[C@H](Oc4c3)c5ccc(O)cc5)[C@H](O)[C@H](O)[C@H]1O,-2.722438715,41,117.0,27.779,-0.011941344868,0.044327658426,-0.106882705424,0,24,548.2815382,0,14,31,27.0,0.0,419.17421285568633,709.125,303.448707
A-1958,CC(=C)C(=O)OCCOc1ccc(cc1)C(C)(C)c2ccc(OCCOC(=O)C(C)=C)cc2,-5.3792018860000015,33,93.0,3.208,-0.004573555336,0.008969044289,-0.034190263075,0,14,420.2862988,0,6,21,19.0,0.0,392.47246040228896,685.2360000000001,270.28891
A-2149,CC(C)c1ccc(O[P](=O)(Oc2ccc(cc2)C(C)C)Oc3ccc(cc3)C(C)C)cc1,-6.137134395,32,90.0,5.149,-0.00985100124,-0.0008515632499999,-0.023567852181,0,12,419.261251,0,4,19,22.0,0.0,382.91979263415385,629.435,273.553314
C-2560,CC(C)(C)NC(=O)C1N(CSC1(C)C)C(=O)C(O)C(CC2=CC=CC=C2)NC(=O)C3=CC=C(Cl)C=C3,-4.28,34,102.0,33.092,-0.00555204452,0.009856727635,-0.0840286933819999,0,13,497.8253236000001,3,4,22,21.0,0.0,449.3712731221037,633.139,314.886003
C-2567,CC(C)(C)NC(=O)C1N(CSC1(C)C)C(=O)C(O)C(CC2=CC=CC=C2)NC(=O)C3=CC=C(C=C3)[N+]([O-])=O,-3.98,37,108.0,14.637,-0.009837346812,0.0162725959699999,-0.064021076673,0,17,508.3778991,4,6,24,26.0,0.001,456.8682059447364,697.45,313.764779
C-796,CC12CCC3C(CCC4=CC(=O)CCC34C)C1CCC2OC(=O)CC5=CC=CC=C5,-4.66,30,84.0,3.0660000000000003,-0.003224900388,0.003596121203,-0.026721487467,0,9,372.2880841,0,3,13,20.0,0.0,351.0485448822134,567.61,250.881189
C-2545,CC(C)(C)NC(=O)C1N(CSC1(C)C)C(=O)C(O)C(CC2=CC=CC=C2)NC(=O)C3=CC=CC=C3,-3.62,34,99.0,22.181,-0.002578107067,0.001711070442,-0.064798119649,0,12,462.372386,3,4,28,24.0,0.0,429.2454066067961,647.047,301.220433
A-2471,O=C(NC1CCCCC1)Nc2ccc(Cc3ccc(NC(=O)NC4CCCCC4)cc3)cc2,-5.142667396,33,93.0,1.204,-0.000197218819,-0.009917385715,-0.020398730049,0,7,412.315492,4,2,24,25.0,0.0,369.3152419891949,619.946,275.848248