Name,SMILES,Solubility,AtomNum,DegFreedom,Dipole,Ghb,Gsasa,Gsolv,HNum,LP,MolWt,NNum,ONum,PiCenters,PiDeloc,Quadrupole,Volume,SASA,Polarizabilty
F-582,CC1C(=O)CCC2C(O)CCC(O)C12,-0.3,14,36.0,6.482,-0.0027504547019999,0.012645354828,-0.012509569735,0,6,180.1163097,0,3,10,8.0,0.0,153.07946280263337,335.029,113.94131000000002
A-1890,CC(=C)O[Si](OC(C)=C)(OC(C)=C)C=C,0.645223339,15,39.0,3.366,-0.000194069392,-0.003230609328,-0.009552445186,0,4,208.2018084,0,3,17,13.0,0.0,207.7963007564388,407.0630000000001,137.673092
D-2028,CCCCC1=C(C)NC(=NC1=O)NCC,-3.02,15,39.0,3.5780000000000003,-0.002328665843,-0.001229448846,-0.020011270261,0,6,190.1376094,3,1,13,13.0,0.0,177.5912316653597,364.853,122.815258
B-2129,CCCCC1=C(C)NC(=NC1=O)N(C)C,-2.2416,15,39.0,1.843,-0.000835130992,0.000113681479,-0.013002863025,0,4,190.1376094,3,1,7,12.0,0.0,180.3393609298524,406.212,125.838462
B-2485,CC1(CCN2CCCCC2)NC(=O)NC1=O,-0.8213,16,42.0,5.494,-0.002646007981,0.004293596419,-0.01238123352,0,4,206.1370144,3,2,17,10.0,0.0,182.39797247219616,354.117,128.89345
A-1875,CCCCC(CC)COC(=O)CC#N,-3.286478485,14,36.0,2.238,-0.001559678138,-0.000675424609,-0.015594672508,0,6,178.12360800000002,1,2,15,10.0,-0.001,177.13356608405854,387.997,117.209077
B-2218,CC1(C)C2CCC1(C)C(N)(C2)C(O)=O,-1.5961,14,36.0,1.12,-0.000819369393,0.0006456957349999,-0.009746719059,0,6,178.12360790000002,1,2,9,12.0,0.0,142.5517549364093,388.929,116.271423
F-893,O=C(C1CCC1)N(O)C1CCCCC1,-2.7,14,36.0,7.317,-0.002466928291,0.0026934259139999,-0.01650428192,0,6,178.12360800000002,1,2,6,11.0,0.0,156.20711067414132,312.974,112.303744
B-2678,CCCCCCCCN1SC=CC1=O,-2.6301,13,36.0,9.746,-0.002346825978,0.002964604594,-0.017910801811,0,5,194.1889904,1,1,4,7.0,0.0,174.4789523005696,387.817,131.60878300000002
B-1229,CCN(CC)c1nc(Cl)nc(n1)N(CC)CC,-4.4112,17,45.0,3.472,-4.520428e-06,-0.004821609415,-0.011918589944,0,10,237.6045485,5,0,10,11.0,0.0,209.4143180386164,409.745,152.679421
B-3373,CCC(C)(C)C1CCC(=NO)C(C1)=NO,-3.9652,15,39.0,3.385,-0.003131522254,0.00859926597,-0.01337448274,0,4,192.1303112,2,2,13,13.0,0.0,161.86946724892695,374.932,120.991613
C-1114,CCC(CC)(C(=O)NC(N)=O)C(=O)OC(C)C,-2.77,17,45.0,2.051,-0.0028065264279999,0.0097541334499999,-0.0103503971939999,0,9,224.129121,2,4,15,17.0,0.001,223.9284016320728,412.62,134.960027
B-2480,CC(C)C[C@H](N)C(=O)N[C@@H](CCC(O)=O)C(O)=O,-0.8969,18,48.0,11.254,-0.005937645667,0.016691765391,-0.036760754031,0,10,240.1285259,2,5,19,14.0,0.0,201.94220272333504,439.236,135.206072
D-290,CCN(CC)c1nc(C)cc(O[P](=S)(OC)OC)n1,-4.133,18,51.0,30.603,-0.145245095648,0.004775806571,-0.304878158622,0,11,285.1749687,3,3,18,14.0,0.0,201.9623300295192,407.542,181.699947
A-1366,C=CCCCCCCCCC=O,-3.8931862,12,30.0,7.226,-0.000874820846,0.0016108040249999,-0.009854902441,0,2,148.11749980000002,0,1,3,6.0,0.0,148.672116276332,357.646,105.25318
A-568,CCCCCCC1CCCC1=O,-3.451515538,12,30.0,5.297999999999999,-0.000714975611,0.001707423831,-0.007490277748,0,3,148.11749980000002,0,1,3,10.0,0.0,151.21008911490787,350.723,104.645193
A-930,CCC(C)(C)C1CCC(=O)CC1,-2.656892778,12,30.0,2.725,-0.001575888145,0.002057495634,-0.010207408472,0,4,148.11749980000002,0,1,12,8.0,0.0,154.962574881351,304.769,101.481425
A-466,CC/C(C)=C/CCC(C)(O)C=C,-2.4091286640000003,12,30.0,4.838,-8.3005671e-05,-0.000939830736,-0.009500372713,0,3,148.11749980000002,0,1,7,11.0,0.001,157.7270786737729,344.06800000000004,103.559685
A-305,COC(C)(C)C1CCC(=CC1)C,-3.296613578,12,30.0,7.96,-7.616060000000001e-06,-0.003596840245,-0.011519404156,0,4,148.11749980000002,0,1,9,10.0,-0.001,161.3804784808431,320.377,104.353266
A-1628,CC(CCOC=O)CCC=C(C)C,-4.055960832,13,33.0,27.675,-0.000561613283,0.002469285275,-0.041957640483,0,2,164.1169047,0,2,8,9.0,-0.001,174.82177146972484,377.337,110.984182
A-4908,CCCCCCC[C@H]1CCC(=O)O1,-3.06681876,13,33.0,4.4910000000000005,-0.0027597649699999,0.004155609349,-0.019308038345,0,5,164.1169047,0,2,4,8.0,-0.001,151.92077568645456,352.201,109.198766
A-49,OC(=O)CCCCCCCCC=C,-3.552826145,13,33.0,1.375,-0.002552250171,0.00634882371,-0.012274981573,0,4,164.1169047,0,2,6,12.0,0.0,156.5697674272694,368.378,109.35143
A-4025,CCOC(=O)C(C)C1CCCCC1,-3.3274567489999995,13,33.0,10.425999999999998,-0.002278890324,0.002512838223,-0.018433915104,0,4,164.1169047,0,2,13,14.0,0.0,160.34611734120213,337.969,108.438447
A-812,CCCCCCC1(C)CCC(=O)O1,-2.643261824,13,33.0,4.169,-0.00263593226,0.0038960829249999,-0.017115792823,0,6,164.1169047,0,2,6,7.0,0.0,156.0958775001741,343.389,106.693958
A-1797,CC(C)CCCCCOC(=O)C=C,-4.170655466,13,33.0,4.678,-0.000445260421,0.001885290556,-0.00807286751,0,4,164.1169047,0,2,8,11.0,0.0,173.60818804083507,396.299,111.525824
A-278,CCCCC(CC)COC(=O)C=C,-4.283204614,13,33.0,5.031000000000001,-0.000153240173,0.001117514374,-0.012073775748,0,5,164.1169047,0,2,12,10.0,0.0,165.82137951453353,388.16,112.432326
A-5547,CC(C)(C)CCCCC(=O)OC=C,-7.122461047000001,13,33.0,10.893,-0.002543280479,0.002301363988,-0.025653296647,0,4,164.1169047,0,2,14,10.0,0.0,170.54599286601604,359.37,108.806409
B-2444,CC1(C)CCC2(CCC(C)(C)O2)O1,-1.9644,13,33.0,2.5660000000000003,-0.000427568574,-6.4370236e-05,-0.00845870089,0,8,164.1169047,0,2,6,6.0,0.0,169.67402260618132,328.759,103.997267
B-1496,CCCCCCCCC(C(O)=O)C(O)=O,-2.92,15,39.0,18.18,-0.005899706724,0.0126077673949999,-0.0557333709119999,0,6,196.1157146,0,4,11,12.0,0.0,178.31860025146096,403.441,119.44535
B-1791,CCOC(=O)CCCCCC(=O)OCC,-2.0408,15,39.0,1.073,-0.004354008025,0.00905808654,-0.025474215392,0,6,196.1157146,0,4,12,14.0,0.0,176.2790864587663,404.544,120.44558
A-995,CCCCC(C(=O)OCC)C(=O)OCC,-2.816496397,15,39.0,3.0210000000000004,-0.002749379957,0.0052941462049999,-0.014533373432,0,7,196.1157146,0,4,13,10.0,0.0,177.899972569083,390.11300000000006,121.298437
B-1731,OC(=O)CCCCCCCCCC(O)=O,-1.6274,15,39.0,22.873,-0.008065106716,0.017998347512,-0.0580495547929999,0,6,196.1157146,0,4,13,15.0,0.0,169.83566487713836,395.791,117.488853
B-1937,OC(=O)CCCCCCCCCCBr,-3.699,14,36.0,31.239,-0.0069171035919999,0.0067127163989999,-0.067823230558,0,7,244.02043250000003,0,2,9,10.0,0.0,175.2553749829197,415.741,130.192345
A-1095,CCCCCCCCC(C)C#N,-4.63242095,12,30.0,2.016,-6.145399e-06,-0.007007233732,-0.016120181683,0,3,146.1247981,1,0,6,9.0,0.0,154.74546448721475,353.846,106.202281
A-4782,C[C@@H]1[C@@H](CN)C[C@H]2C[C@@H]1C2(C)C,-2.515915381,12,30.0,3.188,-4.576068e-06,-0.006314242942,-0.014063459195,0,4,146.1247981,1,0,8,8.0,0.0,151.21562378602832,309.666,101.368691
B-3237,CC(C)C[C@H](N)C(=O)N[C@@H](C)C(=O)NCC(O)=O,-0.8953,18,48.0,3.847,-0.0026042080059999,0.005105364833,-0.0130661601909999,0,9,238.1358242,3,4,25,16.0,0.0,225.3711700454908,479.758,140.78452099999998
B-2836,CC(C)C[C@H](N)C(=O)N[C@H](CCC(N)=O)C(O)=O,-1.5687,18,48.0,14.947,-0.002618892499,0.01028113944,-0.027464963521,0,7,238.1358242,3,4,18,16.0,0.0,219.97486196553496,419.824,137.885646
B-1953,CCN(CC)c1nc(NC(C)C)nc(OC)n1,-4.888999999999999,17,45.0,9.938,-6.1729915e-05,-0.007372073514,-0.0306927869769999,0,7,218.1510159,5,1,12,13.0,0.0,208.2351882926124,417.901,142.82103
B-1525,COCCCNc1nc(NC(C)C)nc(SC)n1,-2.9284,17,48.0,12.699000000000002,-0.000137513847,-0.005859306491,-0.0226085433099999,0,7,250.21580330000003,5,1,18,12.0,0.0,227.14211743523543,463.7,161.64599099999998
B-2622,CCNc1nc(NC(C)C(C)C)nc(SC)n1,-3.7082,16,45.0,5.799,-0.0002089356799999,-0.006257099803,-0.017346274422,0,7,234.21639840000003,5,0,11,14.0,0.001,227.68105088014232,443.877,156.48318999999998
B-2057,CCSc1nc(NC(C)C)nc(NC(C)C)n1,-4.2031,17,45.0,4.008,-8.0692871e-05,-0.0058167178319999,-0.012787714959,0,8,234.21639840000003,5,0,9,9.0,0.0,226.8308724713993,436.787,156.41483200000002
A-4690,CC(C)(C)CC(C)(C)NC(=O)C=C,-2.258829244,13,33.0,2.117,-0.0006683686229999,0.001269604406,-0.013113435185,0,4,162.124203,1,1,12,10.0,0.0,172.52506498426484,353.829,108.342894
A-4006,CC(=C)C(=O)OCC[N+](C)(C)CCC[S]([O-])(=O)=O,0.96273997,17,48.0,3.3080000000000003,-0.012814304032,0.015849896705,-0.032312611439,0,12,258.1866101,1,4,20,14.0,0.0,233.3284403872102,458.737,150.186632
B-1622,CCSC(=O)N(CC)C1CCCCC1,-3.4037,14,36.0,7.778,-0.001615194872,0.00179840198,-0.017501370325,0,5,194.1889904,1,1,12,12.0,0.0,177.71591423399448,338.961,132.53243899999998
A-2589,CCCCCCC\C=C\CC,-5.188357482,11,27.0,0.016,-2.403002e-06,-0.004938611479,-0.014173488776,0,2,132.1180949,0,0,0,3.0,0.0,143.42012662574606,344.376,101.474896
C-1580,CN(C)C(=O)NC1CCCCCCC1,-2.26,14,36.0,8.94,-0.00237694914,0.000496348107,-0.016166202289,0,4,176.1309062,2,1,15,10.0,0.0,166.5683250317086,340.2,116.782316
F-150,NC(CSCCCCCSCC(N)C(=O)O)C(=O)O,-2.91,18,51.0,5.607,-0.00212918183,0.011618538072,-0.010506597202,0,9,288.2586958,2,4,23,14.0,0.0,249.48618855877396,515.096,171.760717
B-2803,C[C@H](NC(=O)[C@H](C)NC(=O)[C@@H](N)CC[P](C)(O)=O)C(O)=O,0.4904,20,57.0,11.134,-0.050255452625,0.01855650923,-0.081368533089,0,11,301.1083961,3,6,31,19.0,0.0,275.0065793311679,514.3330000000001,175.895418
A-4933,CCCCCCCCCCC=O,-3.1520232010000004,12,30.0,7.229,-0.000874503905,0.001610355686,-0.009854177358,0,2,148.11749980000002,0,1,3,8.0,0.0,148.67980228718133,357.67,105.253194
A-1930,CCCCCCCCCC(C)=O,-4.20182067,12,30.0,7.227,-0.000874473868,0.001610611844,-0.009851809812,0,2,148.11749980000002,0,1,3,6.0,0.0,157.40579739657733,357.644,105.253207
A-1634,CCCCCCCCC(C)C=O,-4.027084465,12,30.0,5.332000000000001,-0.000714009851,0.001707347973,-0.00749927338,0,3,148.11749980000002,0,1,3,10.0,0.0,152.04491952139398,350.726,104.645652
B-1548,CCCCCC(=O)CCCCC,-3.5322,12,30.0,0.481,-0.001299320284,0.001666506901,-0.011759005376,0,1,148.11749980000002,0,1,7,12.0,0.0,152.51775039788637,350.176,105.376447
A-487,CCCCCC(O)C(/C)=C/CC,-3.431863898,12,30.0,4.424,-0.002552802847,0.001291922769,-0.020087274064,0,4,148.11749980000002,0,1,4,9.0,0.0,154.05289917408726,348.744,105.238128
A-1796,CCOC1CC(C)CC(C)(C)C1,-4.134294434,12,30.0,3.227,-5.4848671e-05,-0.002237985212,-0.018707851844,0,4,148.11749980000002,0,1,7,9.0,0.0,157.620018080264,326.622,99.644986
A-1401,COC1CC(C)CCC1C(C)C,-3.930174451,12,30.0,5.039,-4.4889225e-05,-0.004037991449,-0.022004229001,0,4,148.11749980000002,0,1,6,7.0,-0.001,151.44353067975638,301.728,104.15762
B-3739,CCCCCCCCCCC(O)=O,-3.5525,13,33.0,1.4240000000000002,-0.002549085625,0.006347997586,-0.01224215798,0,4,164.1169047,0,2,6,12.0,0.0,156.55644049503556,368.351,109.352432
A-874,CCCCCCCCCC(=O)OC,-4.626748523,13,33.0,5.251,-0.000948089646,0.002697659037,-0.007333674357,0,4,164.1169047,0,2,6,11.0,0.0,164.76679990014946,396.337,111.208868
A-545,CCCCCCCCCOC(C)=O,-4.47086065,13,33.0,5.881,-0.001801718814,0.001703419585,-0.024846193928,0,5,164.1169047,0,2,1,9.0,0.0,160.0698839743376,372.406,109.807101
A-4913,CCCCC(CC)COCC1CO1,-3.1148651610000004,13,33.0,11.591,-0.000313597038,-2.846043e-05,-0.031087021481,0,3,164.1169047,0,2,13,13.0,0.001,154.87673032629485,369.962,111.418948
B-725,CCCCCCCCC(=O)OCC,-3.8007,13,33.0,7.662999999999999,-0.002304043354,0.002071369439,-0.019281582856,0,3,164.1169047,0,2,11,11.0,0.001,159.80635503746603,373.834,110.830932
A-4750,CCCCC1OC(C)CC(C)(C)O1,-2.45329736,13,33.0,3.95,-0.0001900178419999,-0.000604557477,-0.010649331558,0,5,164.1169047,0,2,10,11.0,0.0,166.29161194219913,340.72,110.302628
A-106,CCOC(=O)CC(C)CC(C)(C)C,-3.823043168,13,33.0,7.072,-0.002015642445,0.001667587027,-0.016597024643,0,6,164.1169047,0,2,9,8.0,0.0,170.58598500477254,348.403,106.215333
A-304,COC(OC)C(C)(C)CC=C(C)C,-3.339761604,13,33.0,14.957,-0.000123941955,-0.004204833791,-0.058816268685,0,5,164.1169047,0,2,12,9.0,0.0,175.78086576314945,357.949,112.559544
A-1506,CC(CCOC(C)=O)CC(C)(C)C,-3.989167832,13,33.0,4.066,-0.0008581101669999,0.00195402139,-0.011563818429,0,4,164.1169047,0,2,12,13.0,0.0,170.52589764294814,346.227,104.755631
A-28,CC(C)CCCCCOC(=O)CCS,-4.4543817,14,36.0,3.222,-0.002178215374,0.005940262022,-0.009925883516,0,6,196.1816922,0,2,14,12.0,0.001,187.05603067066403,411.745,129.64110300000002
B-2162,CCCCCCCCOC(=O)C(C)O,-1.2726,14,36.0,4.195,-0.001542998258,0.008511200976,-0.003859358983,0,4,180.1163097,0,3,13,12.0,0.0,178.9095052932571,410.991,115.265216
B-2422,CCCCCCOC(=O)CCOCC,-2.8289,14,36.0,1.871,-0.002062045198,0.004214669934,-0.010474839468,0,4,180.1163097,0,3,18,12.0,0.0,168.77937715278657,391.874,116.116212
B-2425,CCCCOCCC(=O)OCCCC,-2.4029,14,36.0,5.54,-0.002151858951,0.004176363895,-0.01439439564,0,4,180.1163097,0,3,17,11.0,0.0,168.7788878139992,391.696,116.104984
A-4816,CCCCC(CC)COC(=O)C(C)O,-2.67352571,14,36.0,2.4930000000000003,-0.0013446116,0.0078187807669999,-0.004791238667,0,5,180.1163097,0,3,14,11.0,0.0,181.1581547846497,395.75,115.552851
A-3865,CCCCC(CC)COC(=O)[C@H](C)O,-2.67352571,14,36.0,2.819,-0.001359970456,0.007874134279,-0.0046697189299999,0,5,180.1163097,0,3,14,11.0,-0.001,181.38829890298985,395.145,115.549012
A-2895,CCCCCCCC(=O)OCC(O)CO,0.179474131,15,39.0,6.676,-0.004242039078,0.012436775392,-0.0223345320949999,0,7,196.1157146,0,4,13,13.0,0.001,179.48203445833406,395.73,119.411722
F-573,CN(C)CCNC(=O)NC1CCCCC1,-0.66,15,39.0,5.922000000000001,-0.002060759063,-0.001263759539,-0.015735750626,0,5,190.1376094,3,1,13,11.0,0.0,191.6911581594777,342.271,124.430926
A-4648,CCCCCCCCC(=O)N(C)C,-2.144049559,13,33.0,4.206,-0.002080991009,0.0008024848919999,-0.015330136622,0,5,162.124203,1,1,6,10.0,0.001,163.97065156218997,373.482,111.726116
A-3976,CC1(C)CC(O)CC(C)(C)N1CCO,-0.8598205529999999,14,36.0,1.694,-0.002946598562,0.0082159323309999,-0.015312277166,0,7,178.12360790000002,1,2,9,7.0,0.0,174.89940607681407,322.247,104.478146
B-2221,CCCCCCCCNC(=O)C(C)O,-2.2827,14,36.0,6.483,-0.003999661934,0.007223462708,-0.0235948934879999,0,4,178.12360790000002,1,2,9,10.0,0.0,174.50038876070118,388.468,116.577425
A-328,NCCCCCCCCCCC(O)=O,-2.400775362,14,36.0,1.658,-0.002826962994,0.004208210459,-0.016949142767,0,5,178.12360790000002,1,2,10,10.0,0.0,165.4304231792375,385.272,114.593507
B-1781,CCSC(=O)N(CC(C)C)CC(C)C,-3.684,14,36.0,2.85,-0.001074375731,0.000316161738,-0.01459403095,0,6,194.1889904,1,1,14,12.0,0.0,201.74373139480653,394.961,134.160668
A-1624,CCOC(=O)CCS[P](=S)(OC(C)C)OC(C)C,-4.274778498,17,48.0,12.763,-0.009491313018,0.007652734022,-0.0361298769859999,0,10,291.2190514,0,3,19,12.0,0.0,254.90815217400225,445.135,181.970924
B-1611,CCCCCCCCCCC,-7.5505,11,27.0,0.086,-2.403006e-06,-0.004938430457,-0.014173427424,0,2,132.1180949,0,0,0,3.0,0.0,143.42246567708128,344.36400000000003,101.474906
F-704,CCCCCCCCCCSC(=N)N,-2.71,13,36.0,9.675,-9.0720866e-05,-0.005980185648,-0.0180401176989999,0,5,192.1962887,2,0,5,12.0,0.0,183.60301256196976,410.451,133.86328799999998
A-683,CCCCCCCCCCCO,-4.480440668,12,30.0,7.223,-0.000875072801,0.001610774769,-0.009854432542,0,2,148.11749980000002,0,1,3,8.0,-0.001,148.67627818715084,357.646,105.253077
B-1696,CCCCCCCCCC(C)O,-2.9418,12,30.0,7.227,-0.000875036003,0.001610850995,-0.00985869706,0,2,148.11749980000002,0,1,3,7.0,0.0,157.40192498177518,357.642,105.253165
B-2359,CCCCCCCCOCC(O)CO,-1.9208,14,36.0,8.082,-0.004726782344,0.007394425359,-0.040900621246,0,4,180.1163097,0,3,8,13.0,0.0,165.13027198476334,391.139,115.2645
A-4587,CCCCC(CC)COCC(O)CO,-2.055017119,14,36.0,3.64,-0.002826999626,0.0095585527489999,-0.018126353121,0,5,180.1163097,0,3,12,15.0,0.0,171.21415317265624,364.82,114.407577
B-2833,COCCO[Si](CCCl)(OCCOC)OCCOC,-1.1029,19,51.0,11.394,-0.000591314822,0.002425619287,-0.030907711279,0,11,291.6529607,0,6,25,15.0,0.0,249.0075860294254,484.108,169.15710900000002
A-4337,CCCCC(CC)COCCCN,-1.096509119,13,33.0,4.307,-3.1107482e-05,-0.004996397325,-0.016608773731,0,5,162.124203,1,1,10,9.0,0.0,169.46699402497566,369.757,112.762234
F-462,CCCCCCCCNCC(O)CO,-2.22,14,36.0,7.48,-0.003792382771,0.006559113271,-0.029684058862,0,5,178.12360790000002,1,2,6,12.0,0.0,166.15823642725442,391.676,116.881447
B-2913,CCO[P](C)(=O)SCCN(C(C)C)C(C)C,-0.95,16,42.0,11.464,-0.009544239477,0.001747835052,-0.039724570942,0,8,241.1621574,1,2,15,9.0,0.0,224.91438925175416,411.334,160.281063
A-1751,CCCCCCCC[Si](OC)(OC)OC,-4.246128199,15,39.0,24.475,-5.87949e-06,-0.003265856986,-0.037442717617,0,8,208.2018084,0,3,9,7.0,-0.001,217.8574063571949,475.505,152.400995
C-2055,BrC1=C(C=CC2=CC=CC=C12)N=C=S,-4.32,14,36.0,3.522,-0.000115391767,-0.001036574189,-0.002827769304,0,4,258.0931133,1,0,10,11.0,0.0,177.7054222686438,347.672,146.099684
B-3219,Clc1cccc(c1Cl)c2c[nH]cc2C#N,-4.6937,15,39.0,8.488999999999999,-8.891192e-06,-0.005063845333,-0.022876487009,0,7,231.0373765,2,0,6,11.0,0.0,185.03169367233735,344.94199999999995,140.083302
F-7,C1=CC2=C(C=C1Cl)NC(=N2)C3=CC=C(O3)[N+](=O)[O-],-4.82,18,48.0,12.505,-0.004607325665,0.00865077849,-0.019661872186,0,9,257.58935690000004,3,3,14,12.0,0.0,197.282234652082,393.673,148.394171
F-701,C1=CC2=C(C=C1F)NC(=N2)C3=CC=C(O3)[N+](=O)[O-],-4.0,18,48.0,10.893,-0.004590266404,0.0102583914769999,-0.018504355064,0,9,241.1348224,3,3,14,13.0,0.0,186.0849314268184,373.202,136.64109
F-86,O=C1C=CC2=C(C=C3OC=CC3=C2)O1,-3.74,14,36.0,8.36,-0.0028280884989999,0.007193204593,-0.012619768465,0,4,180.1163097,0,3,11,9.0,-0.001,151.3627676697671,301.478,112.804602
F-294,O=C1C=CC2=C(O1)C(O)=C1OC=CC1=C2,-3.22,15,39.0,8.064,-0.003596842172,0.010964174281,-0.016831773835,0,6,196.1157146,0,4,11,10.0,0.0,152.91467384905366,312.651,116.286957
F-944,O=C1NC(=O)N(CC2=C(Cl)C=C(Cl)C=C2)C=C1F,-3.94,16,48.0,14.931,-0.002989839109,0.010471315178,-0.019664587453,0,12,282.0345895,2,2,20,14.0,0.001,199.2301757339,466.091,155.193894
A-5712,[O-][N+](=O)c1ncn(CC(=O)Nc2cc(ccc2Cl)C(F)(F)F)n1,-5.968106767,22,63.0,3.728,-0.004335885023,0.019391383981,-0.008778394586,0,21,342.59797280000004,5,3,12,11.0,0.0,249.0284854327492,448.754,167.583654
C-1949,ClCC(=O)C1=CC=C(NN=C(C#N)C#N)C=C1,-3.19,17,45.0,8.316,-0.000184954991,-0.0023347310709999,-0.0136983047289999,0,6,239.5972502,4,1,19,14.0,0.0,208.0929997709996,418.07,144.948929
B-2328,OC(=O)c1c(Cl)ccc2ccccc12,-2.3152,14,36.0,9.856,-0.004226056755,0.00750956899,-0.030087717447,0,7,199.5698423,0,2,8,10.0,0.0,160.2878581935776,317.641,122.092468
C-1342,FC1=CNC(=O)N(C1=O)C(=O)C2=CC=CC=C2,-2.26,17,45.0,3.289,-0.003266592992,0.010439039821,-0.010981346762,0,9,227.1281192,2,3,14,10.0,0.0,177.09337255528422,342.961,128.162204
C-1362,FC1=CNC(=O)N(C(=O)OC2=CC=CC=C2)C1=O,-3.22,18,48.0,11.038,-0.003219619033,0.008493357836,-0.026211458837,0,11,243.1275242,2,4,13,10.0,0.0,187.1506661683276,349.134,133.639077
C-1357,FC1=CN(C(=O)NC1=O)C(=O)OC2=CC=CC=C2,-2.44,18,48.0,5.367999999999999,-0.002232166173,0.010853487549,-0.007181316062,0,9,243.1275242,2,4,17,14.0,0.0,193.59759304125888,368.593,134.757199
F-862,C1=CC=C2C(=C1)NC(=N2)C3=CC=C(O3)[N+](=O)[O-],-3.89,17,45.0,10.634,-0.00403229982,0.0067125009439999,-0.014684671708,0,7,222.1364193,3,3,11,12.0,-0.001,174.8325969915885,357.74800000000005,132.601052
A-4,O=C1Nc2cccc3cccc1c23,-3.2547670980000003,13,33.0,9.674,-0.002628721909,0.001229000069,-0.0253567201899999,0,3,162.124203,1,1,7,10.0,-0.001,137.46169163860108,279.661,108.497819
B-1821,OC(=O)c1cccc2cccc(c12)[N+]([O-])=O,-2.7501,16,42.0,14.985,-0.006720521599,0.013747303838,-0.0517205753199999,0,6,210.1224178,1,4,17,15.0,0.001,167.46640931458148,318.74,124.053011
C-483,S=C=NC1=CC2=CC=CC=C2C=C1,-4.44,13,33.0,4.062,-0.000161937019,-0.000704099976,-0.0028929911469999,0,1,178.1895855,1,0,16,10.0,0.0,162.8719917192854,333.69300000000004,125.41374
B-4003,S=C=Nc1cccc2ccccc12,-4.6022,13,33.0,2.464,-9.3145376e-05,-0.000684677293,-0.001899477956,0,1,178.1895855,1,0,12,11.0,0.001,157.57214793220282,318.307,124.774152
B-3080,Cc1c(Cl)cc(cc1Cl)C2=NNC(=O)C=C2,-5.5375,16,42.0,11.075,-0.002327996275,0.002967909317,-0.023744642373,0,11,247.0367814,2,1,8,11.0,0.0,193.4585787908312,387.153,146.71772
F-834,O=C1NC(=O)N(CC2=CC=C(Cl)C=C2)C=C1F,-3.49,16,45.0,6.572,-0.002440586161,0.009011953953,-0.013365603931,0,9,246.5816519,2,2,16,13.0,0.0,199.7747396517273,381.154,139.854158
B-3324,Cc1cnc2c(ccc(Cl)c2C(O)=O)c1,-2.9973,14,39.0,11.726,-0.0060411475289999,0.006378012396,-0.062765107297,0,8,213.5765455,1,2,9,10.0,0.0,172.42758162035568,328.271,128.434411
B-3014,FC1=CN(C(=O)NC1=O)C(=O)Nc2ccccc2,-1.6184,18,48.0,1.487,-0.002006279824,0.008421625188,-0.0045560834269999,0,8,241.1348225,3,3,17,12.0,0.0,194.5058041949284,367.085,136.236933