Name,SMILES,Solubility,AtomNum,DegFreedom,Dipole,Ghb,Gsasa,Gsolv,HNum,LP,MolWt,NNum,ONum,PiCenters,PiDeloc,Quadrupole,Volume,SASA,Polarizabilty
C-961,ClC1=CC=C(Cl)C(=C1)C2=C(Cl)C(=C(Cl)C(=C2Cl)Cl)Cl,-8.46,16,51.0,0.831,-1.40114e-07,0.00366276377,-0.003071554915,0,21,392.2993939,0,0,4,8.0,0.0,264.37488219030985,461.879,210.38734700000003
B-2944,Clc1cc(Cl)c(Cl)c(c1)c2c(Cl)c(Cl)cc(Cl)c2Cl,-8.5901,16,51.0,2.986,-2.01808e-07,0.004251002708,-0.003623531928,0,22,392.2993939,0,0,2,6.0,0.0,264.51436329697043,474.3130000000001,210.239361
B-2872,Clc1cc(Cl)c(Cl)c(c1)c2c(Cl)cc(Cl)c(Cl)c2Cl,-8.68,16,51.0,3.187,-2.0562e-07,0.004089722429,-0.004177070069,0,22,392.2993939,0,0,2,7.0,0.0,264.57327864866363,467.81,210.232155
B-3215,Clc1cc(Cl)c(c(Cl)c1)c2c(Cl)c(Cl)cc(Cl)c2Cl,-8.4901,16,51.0,3.564,-1.9418800000000002e-07,0.004166619999,-0.002970767693,0,22,392.2993939,0,0,2,6.0,0.0,264.5465949094411,468.97,210.206881
B-2951,Clc1cc(Cl)c(Cl)c(c1)c2cc(Cl)c(Cl)c(Cl)c2Cl,-9.1,16,51.0,3.969,-2.14335e-07,0.003922692195,-0.004807275828,0,22,392.2993939,0,0,2,6.0,0.0,264.5588106010827,458.615,210.26427400000003
B-3048,Clc1cc(Cl)c(c(Cl)c1)c2cc(Cl)c(Cl)c(Cl)c2Cl,-8.68,16,51.0,5.676,-2.18306e-07,0.003813790541,-0.005774157779,0,22,392.2993939,0,0,2,6.0,0.0,264.88929917130423,456.712,210.158925
B-2845,Clc1ccc(Cl)c(c1Cl)c2cc(Cl)c(Cl)c(Cl)c2Cl,-8.5901,16,51.0,0.868,-1.31509e-07,0.003569567089,-0.003215925265,0,22,392.2993939,0,0,1,6.0,0.0,264.5573828546716,458.049,210.846259
C-2363,ClC1=CC(=C(Cl)C(=C1Cl)C2=CC(=C(Cl)C(=C2)Cl)Cl)Cl,-9.1,17,51.0,2.086,-2.02257e-07,0.003855668767,-0.007243702056,0,22,392.2993939,0,0,2,7.0,0.0,264.69293159066854,463.533,210.186414
B-3159,Clc1cc(Cl)cc(c1)c2c(Cl)c(Cl)c(Cl)c(Cl)c2Cl,-9.1,15,51.0,3.202,-3.1251e-07,0.003688264823,-0.006667390715,0,22,392.2993939,0,0,2,7.0,0.0,264.6962990435354,455.867,210.38997
C-2362,ClC1=CC=C(C=C1Cl)C2=C(Cl)C(=C(Cl)C(=C2Cl)Cl)Cl,-8.9,16,51.0,3.254,-2.11667e-07,0.0034437434019999,-0.007343933495,0,21,392.2993939,0,0,3,6.0,0.001,264.6069108018782,451.224,210.605362
B-2948,Clc1ccc(c(Cl)c1Cl)c2c(Cl)cc(Cl)c(Cl)c2Cl,-8.2605,16,51.0,0.942,-1.52254e-07,0.0035406611339999,-0.00349698875,0,22,392.2993939,0,0,1,7.0,0.0,264.6120835718255,459.021,210.850462
B-2947,Clc1ccc(c(Cl)c1Cl)c2c(Cl)c(Cl)cc(Cl)c2Cl,-8.42,16,51.0,0.8909999999999999,-1.40758e-07,0.003591547419,-0.0033986731839999,0,22,392.2993939,0,0,1,6.0,0.0,264.6114135245428,461.65,210.85141600000003
H-215,ClC1=CC(Cl)=C(Cl)C=C1C1=C(Cl)C(Cl)=CC(Cl)=C1Cl,-8.94,16,51.0,0.129,-1.78694e-07,0.003884708762,-0.0019018870559999,0,22,392.2993939,0,0,0,7.0,0.0,264.8710924298613,464.739,210.967483
C-951,ClC1=CC(=C(C=C1Cl)C2=C(Cl)C=C(Cl)C(=C2Cl)Cl)Cl,-7.92,16,51.0,0.1669999999999999,-1.88558e-07,0.003858416994,-0.001904244845,0,22,392.2993939,0,0,0,6.0,0.0,264.8655151270986,463.577,210.966095
B-3211,Clc1cc(Cl)c(c2cc(Cl)c(Cl)c(Cl)c2)c(Cl)c1Cl,-9.1,15,51.0,2.789,-2.09589e-07,0.0038563643089999,-0.007237102462,0,22,392.2993939,0,0,2,6.0,0.0,264.7219563764674,463.818,210.175474
B-2866,Clc1cc(cc(Cl)c1Cl)c2cc(Cl)c(Cl)c(Cl)c2Cl,-8.7202,16,51.0,2.813,-1.88964e-07,0.0038912104889999,-0.007433625398,0,22,392.2993939,0,0,2,7.0,-0.001,264.7309947156751,474.56,210.175482
B-2793,Clc1cc(Cl)c(cc1Cl)c2cc(Cl)c(Cl)c(Cl)c2Cl,-8.0115,16,51.0,9.867,-5.202779999999999e-07,0.003562377533,-0.024941070279,0,22,392.2993939,0,0,0,6.0,0.001,266.02058704761254,449.369,211.099553
C-1488,ClC1=CC=C(Cl)C(=C1Cl)OC2=C(Cl)C(=C(Cl)C(=C2)Cl)Cl,-8.89,17,54.0,1.127,-4.9261738e-05,0.004220824057,-0.002127594985,0,24,408.2987988,0,1,1,8.0,0.0,273.6008199456023,466.048,215.881571
H-219,ClC1=CC=C(OC2=CC(Cl)=C(Cl)C(Cl)=C2Cl)C(Cl)=C1Cl,-9.12,15,54.0,0.386,-4.3701662e-05,0.00508295211,-0.004556081853,0,23,408.2987988,0,1,1,7.0,0.0,274.87514525743256,466.814,215.051915
C-2394,ClC1=CC=C(OC2=C(Cl)C(=C(Cl)C(=C2Cl)Cl)Cl)C(=C1)Cl,-9.64,17,54.0,0.8140000000000001,-2.5976148e-05,0.004206268287,-0.002953377524,0,23,408.2987988,0,1,3,6.0,0.0,273.34523899603715,483.7,215.275003
C-1487,ClC1=CC=C(OC2=C(Cl)C(=CC(=C2Cl)Cl)Cl)C(=C1Cl)Cl,-9.09,17,54.0,1.2990000000000002,-1.7426024e-05,0.004015396302,-0.003198024081,0,24,408.2987988,0,1,1,6.0,0.0,273.532961928914,482.069,215.892751
C-1481,ClC1=C(Cl)C=C(OC2=C(Cl)C(=C(Cl)C(=C2)Cl)Cl)C(=C1)Cl,-9.5,17,54.0,0.402,-3.5316853e-05,0.004592519661,-0.0049407175339999,0,23,408.2987988,0,1,1,7.0,-0.001,274.90483596117133,456.453,214.998002
C-1485,ClC1=C(Cl)C=C(OC2=C(Cl)C(=CC(=C2Cl)Cl)Cl)C(=C1)Cl,-9.05,17,54.0,0.201,-4.016597e-05,0.004410834512,-0.001101006659,0,24,408.2987988,0,1,0,9.0,0.0,273.95125829917026,471.526,216.009209
C-2381,ClC1=CC(=CC(=C1Cl)Cl)OC2=C(Cl)C(=C(Cl)C(=C2)Cl)Cl,-9.54,17,54.0,0.562,-6.0050789e-05,0.005090075153,-0.004777018195,0,23,408.2987988,0,1,1,7.0,0.0,274.96793873787107,452.137,215.093526
C-1483,ClC1=CC=C(OC2=C(Cl)C(=C(Cl)C(=C2Cl)Cl)Cl)C=C1Cl,-9.46,17,54.0,4.183,-3.4129307e-05,0.003862073213,-0.00800656619,0,23,408.2987988,0,1,4,8.0,0.0,273.71054978249686,466.657,215.681114
B-3126,Brc1cc2oc3cc(Br)c(Br)cc3c2cc1Br,-6.8395,16,45.0,1.383,-0.0002085830939999,-0.002343060634,-0.006582028344,0,13,479.7423468,0,1,1,7.0,0.0,222.64993444979285,431.85,197.453867
B-4106,Brc1ccc(c(Br)c1Br)c2ccc(Br)c(Br)c2Br,-7.7563,16,48.0,0.012,-0.000186232086,-0.005123739703,-0.0110717174699999,0,18,623.5499975,0,0,4,9.0,0.0,262.26464138536795,467.507,235.73513
B-2809,Brc1cc(Br)c(Oc2cc(Br)cc(Br)c2Br)c(Br)c1,-8.1979,15,51.0,2.7110000000000003,-0.000346544219,-0.004419347183,-0.012056755358,0,20,639.5494024000001,0,1,4,8.0,0.0,271.16510107659417,510.522,239.463439
B-3470,Nc1n(nc(C#N)c1[S](=O)C(F)(F)F)c2c(Cl)cc(cc2Cl)C(F)(F)F,-5.3619,24,72.0,13.368,-0.002670792512,0.013595672175,-0.03249381163,0,29,433.1161301,4,1,11,10.0,0.0,286.3918686477184,495.146,206.73701
B-4431,Clc1cc2oc3cc(Cl)c(Cl)cc3c2cc1Cl,-8.6456,16,45.0,0.119,-6.5595961e-05,0.0035144460989999,-0.001216072893,0,13,301.939986,0,1,1,7.0,0.001,212.2827935518376,402.043,170.935115
B-4432,Clc1ccc2Oc3c(Cl)c(Cl)c(Cl)cc3Oc2c1,-8.8744,16,48.0,1.48,-0.000257237582,0.004195328836,-0.001517388876,0,16,317.939391,0,2,1,7.0,-0.001,221.3102401007027,414.069,175.196351
B-4426,Clc1cc(Cl)c2Oc3cc(Cl)cc(Cl)c3Oc2c1,-9.0027,16,48.0,0.0,-0.00033711976,0.005269737976,-0.002342276182,0,16,317.939391,0,2,4,6.0,0.0,220.99039953307675,429.145,174.465537
B-4423,Clc1cc2Oc3cc(Cl)c(Cl)cc3Oc2cc1Cl,-9.2068,17,48.0,0.0,-0.000218068444,0.004689267682,0.0003694047,0,16,317.939391,0,2,0,6.0,0.0,221.44344521194824,415.379,175.937283
H-453,ClC1=C(Cl)C(Cl)=C2OC3=CC=CC=C3OC2=C1Cl,-8.77,18,48.0,2.5810000000000004,-0.0001439681569999,0.0023422674899999,-0.00380342686,0,16,317.939391,0,2,3,9.0,0.0,220.9370277542486,400.714,175.743759
B-3047,Clc1cc(Cl)c(c(Cl)c1)c2cc(Cl)c(Cl)cc2Cl,-8.1199,16,48.0,3.655,-2.52781e-07,0.003394715115,-0.0024947441,0,18,356.8464563,0,0,3,6.0,0.0,246.9199177622661,450.501,195.486603
B-3007,Clc1ccc(c(Cl)c1)c2c(Cl)cc(Cl)c(Cl)c2Cl,-7.4721,15,48.0,0.547,-1.80597e-07,0.002896981222,-0.002554099292,0,18,356.8464563,0,0,1,7.0,0.0,247.1004633477036,441.826,195.736839
H-238,ClC1=CC=C(C2=CC(Cl)=C(Cl)C(Cl)=C2Cl)C(Cl)=C1,-8.32,14,48.0,8.475,-6.7998e-07,0.002544756472,-0.021612944533,0,17,356.8464563,0,0,2,8.0,0.001,247.8049270614827,426.265,196.361226
B-2941,Clc1ccc(Cl)c(c1)c2c(Cl)c(Cl)cc(Cl)c2Cl,-7.4254,15,48.0,0.878,-1.54507e-07,0.002981077227,-0.002322386244,0,18,356.8464563,0,0,1,6.0,0.0,247.01395018992045,444.135,195.594879
B-3142,Clc1ccc(Cl)c(c1)c2c(Cl)cc(Cl)c(Cl)c2Cl,-8.01,15,48.0,1.267,-1.68093e-07,0.00288298217,-0.002607853727,0,18,356.8464563,0,0,2,8.0,0.0,247.0193943880628,439.69,195.450285
B-2958,Clc1ccc(Cl)c(c1)c2cc(Cl)c(Cl)c(Cl)c2Cl,-7.6794,15,48.0,1.274,-1.69191e-07,0.0026971758279999,-0.004902977077,0,18,356.8464563,0,0,1,6.0,0.0,248.1256804791753,423.766,190.802979
B-4115,Clc1ccc(Cl)c(c1Cl)c2c(Cl)ccc(Cl)c2Cl,-7.9032,16,48.0,0.662,-8.553e-08,0.002502578937,-0.002529727923,0,18,356.8464563,0,0,3,7.0,0.001,246.49207173618996,427.896,195.967153
H-232,ClC1=CC(Cl)=C(Cl)C(C2=CC(Cl)=CC(Cl)=C2Cl)=C1,-8.56,15,48.0,5.018,-2.57363e-07,0.003558448952,-0.005947230945,0,18,356.8464563,0,0,4,6.0,0.0,246.571643678204,460.276,194.780681
E-208,Clc1c(Cl)cc(Cl)cc1c2c(Cl)cc(Cl)cc2Cl,-8.71,16,48.0,3.47,-2.55182e-07,0.00350790097,-0.004028403987,0,18,356.8464563,0,0,4,6.0,0.0,246.627404466392,450.14,194.765786
B-2932,Clc1cc(Cl)c(Cl)c(c1)c2cc(Cl)c(Cl)cc2Cl,-8.5801,16,48.0,3.966,-3.14056e-07,0.003177641625,-0.003700029164,0,18,356.8464563,0,0,2,7.0,0.0,246.84909796360444,438.317,195.529592
C-900,ClC1=CC(=C(C(=C1)Cl)C2=C(Cl)C=C(Cl)C=C2Cl)Cl,-8.71,15,48.0,0.0,-2.46764e-07,0.0037588533679999,-0.003207165396,0,18,356.8464563,0,0,4,7.0,-0.001,246.6052881140369,458.849,194.72952
B-4129,Clc1cc(Cl)c(Cl)c(c1)c2c(Cl)ccc(Cl)c2Cl,-7.8218,16,48.0,3.0860000000000003,-1.81372e-07,0.003072972403,-0.003815642597,0,18,356.8464563,0,0,3,6.0,0.0,246.54336196248488,442.885,195.389032
B-3041,Clc1cc(Cl)c(c(Cl)c1)c2ccc(Cl)c(Cl)c2Cl,-8.2399,16,48.0,3.739,-2.08248e-07,0.003051005716,-0.003860518016,0,18,356.8464563,0,0,3,6.0,0.001,246.68918056887543,444.102,195.382316
B-3208,Clc1ccc(Cl)c(c2cc(Cl)c(Cl)c(Cl)c2)c1Cl,-8.27,15,48.0,3.526,-1.86026e-07,0.002811795299,-0.007586557846,0,18,356.8464563,0,0,3,6.0,0.0,246.73171303977423,437.744,195.315249
B-2842,Clc1ccc(Cl)c(c1Cl)c2cc(Cl)c(Cl)cc2Cl,-7.93,16,48.0,0.813,-1.6049399999999998e-07,0.002839967703,-0.001833625819,0,18,356.8464563,0,0,1,6.0,0.001,246.8816049311345,438.706,196.100133
B-3209,Clc1cc(Cl)cc(c1)c2c(Cl)c(Cl)cc(Cl)c2Cl,-8.2696,15,48.0,0.048,-9.49122e-07,0.003010132129,-0.018441795893,0,18,356.8464563,0,0,0,6.0,0.0,249.896286959826,427.964,195.685916
B-3143,Clc1cc(c(Cl)c(Cl)c1Cl)c2c(Cl)cccc2Cl,-8.13,16,48.0,4.297,-1.8069700000000002e-07,0.0024463203049999,-0.005759123222,0,18,356.8464563,0,0,2,7.0,0.001,247.2282252216436,431.79,196.024827
B-3207,Clc1ccc(cc1Cl)c2c(Cl)c(Cl)cc(Cl)c2Cl,-8.48,15,48.0,11.243,-6.97766e-07,0.00258791676,-0.026468421554,0,18,356.8464563,0,0,1,7.0,0.0,248.43978362557365,428.385,196.151973
B-3206,Clc1ccc(cc1Cl)c2c(Cl)cc(Cl)c(Cl)c2Cl,-7.6505,15,48.0,12.074000000000002,-8.19187e-07,0.002569504839,-0.029739983918,0,18,356.8464563,0,0,1,6.0,0.0,248.22913317418363,427.877,196.213892
B-2957,Clc1cccc(c1Cl)c2c(Cl)c(Cl)cc(Cl)c2Cl,-8.6036,15,48.0,4.283,-2.23853e-07,0.002463649549,-0.00525273378,0,18,356.8464563,0,0,2,8.0,0.0,247.2024787891941,434.181,196.024891
B-3072,Clc1cccc(c1Cl)c2c(Cl)cc(Cl)c(Cl)c2Cl,-8.48,15,48.0,3.777,-2.35737e-07,0.002427657709,-0.0052884386399999,0,18,356.8464563,0,0,2,7.0,0.0,247.1972742774404,431.783,196.026948
B-2843,Clc1ccc(c(Cl)c1Cl)c2c(Cl)ccc(Cl)c2Cl,-7.65,16,48.0,1.32,-1.2949e-07,0.002509548221,-0.003395561121,0,18,356.8464563,0,0,3,8.0,0.001,246.62533439488968,433.481,195.9996
B-2679,Clc1ccccc1c2c(Cl)c(Cl)c(Cl)c(Cl)c2Cl,-8.0133,14,48.0,1.662,-1.90281e-07,0.002072013348,-0.003468382794,0,18,356.8464563,0,0,3,8.0,0.0,246.68638685400904,424.887,196.070323
B-2762,Clc1cc(cc(Cl)c1Cl)c2cc(Cl)c(Cl)c(Cl)c2,-8.8498,15,48.0,0.004,-2.12469e-07,0.003404718038,-0.008954677664,0,18,356.8464563,0,0,4,6.0,0.0,246.80378408265997,474.66,194.628572
B-4102,Clc1ccc(c(Cl)c1Cl)c2cc(Cl)c(Cl)cc2Cl,-8.3813,16,48.0,0.8540000000000001,-1.79085e-07,0.002663581141,-0.002645555455,0,18,356.8464563,0,0,1,6.0,0.0,246.96551025047523,442.88,196.12157
B-2844,Clc1ccc(cc1Cl)c2cc(Cl)c(Cl)c(Cl)c2Cl,-7.8306,15,48.0,10.379,-6.309960000000001e-07,0.002385949249,-0.02493578373,0,18,356.8464563,0,0,1,6.0,0.0,248.4257339182585,430.937,196.165735
C-874,ClC1=CC=C(C2=CC(=C(Cl)C(=C2)Cl)Cl)C(=C1Cl)Cl,-9.1,15,48.0,3.506,-1.7581800000000005e-07,0.002842525175,-0.007522319847,0,18,356.8464563,0,0,3,6.0,0.0,246.77198703297523,450.675,195.326377
B-4130,Clc1cccc(c1Cl)c2cc(Cl)c(Cl)c(Cl)c2Cl,-8.4206,15,48.0,10.251,-3.8205100000000004e-07,0.002550566498,-0.0262954409989999,0,18,356.8464563,0,0,2,7.0,0.0,248.27046496859347,423.943,196.188426
C-885,ClC1=C(Cl)C(=C(C=C1)C2=CC=C(Cl)C(=C2Cl)Cl)Cl,-8.78,16,48.0,1.442,-1.26966e-07,0.0023074044769999,-0.00445591435,0,18,356.8464563,0,0,4,8.0,-0.001,246.70591180128787,437.367,196.007722
E-203,c1c(Cl)c(Cl)cc(Cl)c1c2c(Cl)cc(Cl)c(Cl)c2,-8.56,15,48.0,0.075,-2.25764e-07,0.003016637128,-0.000988277441,0,18,356.8464563,0,0,0,6.0,0.001,247.2527143416736,447.399,196.23629
B-2949,Clc1cc(Cl)c(cc1Cl)c2cc(Cl)c(Cl)c(Cl)c2,-8.21,15,48.0,3.637,-2.22917e-07,0.0031324682449999,-0.006031175871,0,18,356.8464563,0,0,2,6.0,0.0,247.0866698769761,453.807,195.43067
C-2319,ClC1=CC=C(Cl)C(=C1Cl)OC2=C(Cl)C=C(Cl)C(=C2)Cl,-7.88,17,51.0,1.071,-3.9604627e-05,0.00337717156,-0.0012812020269999,0,20,372.8458612,0,1,2,7.0,0.001,255.9757867471801,445.891,201.147883
C-1449,ClC1=CC=C(OC2=C(Cl)C(=C(Cl)C(=C2)Cl)Cl)C(=C1)Cl,-8.44,17,51.0,1.924,-6.240547899999999e-05,0.003967666938,-0.001808018761,0,20,372.8458612,0,1,1,8.0,0.0,256.0053668175331,464.716,200.445381
C-1445,ClC1=C(Cl)C(=C(OC2=CC(=C(Cl)C=C2Cl)Cl)C=C1)Cl,-8.31,17,51.0,0.928,-3.424942e-05,0.003394176633,-0.001637512989,0,20,372.8458612,0,1,1,7.0,0.0,255.888976867024,457.961,201.172264
C-2323,ClC1=CC(=C(OC2=C(Cl)C(=CC(=C2Cl)Cl)Cl)C=C1)Cl,-8.42,17,51.0,2.695,-6.1905587e-05,0.003737328827,-0.00171872704,0,21,372.8458612,0,1,0,7.0,0.001,256.0394386453347,450.631,200.401436
C-2316,ClC1=CC(=C(OC2=C(Cl)C(=C(Cl)C=C2Cl)Cl)C=C1)Cl,-8.47,17,51.0,3.571,-5.5182367000000005e-05,0.003753587168,-0.002259556656,0,20,372.8458612,0,1,0,7.0,0.0,256.07081431400263,450.6880000000001,200.399082
C-1455,ClC1=CC=C(OC2=C(Cl)C(=C(Cl)C(=C2Cl)Cl)Cl)C=C1,-8.94,16,51.0,0.912,-6.5912603e-05,0.003707559051,-0.003086836841,0,20,372.8458612,0,1,4,8.0,0.0,256.25992105185134,457.286,198.418153
C-1447,ClC1=C(Cl)C(=C(OC2=CC=C(Cl)C(=C2Cl)Cl)C=C1)Cl,-8.14,17,51.0,0.416,-3.8835295e-05,0.004169971329,-0.004488666893,0,19,372.8458612,0,1,1,7.0,0.0,257.3660758681479,450.867,200.28341
C-1442,ClC1=CC(=C(OC2=CC(=C(Cl)C=C2Cl)Cl)C=C1Cl)Cl,-8.36,16,51.0,0.257,-3.6665789e-05,0.003924636471,-0.003941914194,0,19,372.8458612,0,1,1,7.0,0.001,257.4893665893343,438.584,200.144873
C-1450,ClC1=CC(=C(OC2=C(Cl)C=C(Cl)C(=C2)Cl)C(=C1)Cl)Cl,-8.04,16,51.0,3.164,-5.0938909000000006e-05,0.00421310443,-0.001595568874,0,20,372.8458612,0,1,2,7.0,-0.001,256.00134022306906,458.911,200.521117
C-2311,ClC1=CC(=C(Cl)C(=C1)Cl)OC2=CC(=C(Cl)C=C2Cl)Cl,-8.41,17,51.0,2.665,-7.5721312e-05,0.00445980678,-0.001893916081,0,20,372.8458612,0,1,3,7.0,0.0,255.8741759300034,470.516,200.549953
C-2324,ClC1=C(Cl)C(=C(OC2=C(Cl)C=CC(=C2Cl)Cl)C=C1)Cl,-7.96,17,51.0,0.914,-5.1367895e-05,0.003243172737,-0.002224507457,0,20,372.8458612,0,1,3,7.0,0.0,255.6120544238481,441.175,201.021193
C-2313,ClC1=CC(=C(Cl)C(=C1)OC2=C(Cl)C(=C(Cl)C=C2)Cl)Cl,-8.55,16,51.0,3.412,-0.000121672441,0.004643406321,-0.0026459398239999,0,20,372.8458612,0,1,4,8.0,0.0,255.61497831139528,452.326,200.406382
C-1453,ClC1=CC(=C(OC2=C(Cl)C(=C(Cl)C=C2)Cl)C(=C1)Cl)Cl,-8.1,16,51.0,4.294,-1.67032e-05,0.00359089304,-0.003793826007,0,20,372.8458612,0,1,4,8.0,0.001,255.6065534370049,468.333,200.40921
C-2303,ClC1=C(Cl)C(=C(OC2=CC(=C(Cl)C(=C2)Cl)Cl)C=C1)Cl,-8.49,17,51.0,2.595,-2.830383e-05,0.004452203814,-0.005886404042,0,19,372.8458612,0,1,5,9.0,0.001,255.482457361398,467.84,200.40658
C-2315,ClC1=CC=C(OC2=C(Cl)C(=CC(=C2Cl)Cl)Cl)C=C1Cl,-8.3,17,51.0,1.118,-5.4180168000000006e-05,0.00406035401,-0.00299971151,0,21,372.8458612,0,1,0,8.0,0.001,256.02568927389376,465.288,200.472196
C-1441,ClC1=CC=C(OC2=C(Cl)C(=C(Cl)C(=C2)Cl)Cl)C=C1Cl,-8.78,17,51.0,0.499,-7.7254914e-05,0.004603055644,-0.002672066412,0,21,372.8458612,0,1,0,7.0,0.0,256.042380720257,463.389,200.42332
C-1437,ClC1=CC(=C(OC2=CC(=C(Cl)C(=C2)Cl)Cl)C=C1Cl)Cl,-8.72,16,51.0,0.266,-6.714201999999999e-05,0.0044103763669999,-0.003639743521,0,19,372.8458612,0,1,1,7.0,0.0,257.5174977314269,434.232,200.286279
B-3129,Brc1ccc(Br)c(c1)c2cc(Br)c(Br)cc2Br,-9.7256,15,45.0,1.893,-0.000173168171,-0.005142344759,-0.008868227268,0,15,543.6464697,0,0,3,8.0,0.0,242.4408898793344,463.17,213.947566
H-491,ClC1=CC(Cl)=C2OC3=CC=CC=C3OC2=C1Cl,-7.58,17,45.0,2.369,-0.000150565099,0.001647071749,-0.003221930339,0,14,282.4864534,0,2,3,6.0,0.0,203.5976871126271,382.756,160.930853
B-4128,Clc1ccc(Cl)c(c1)c2cc(Cl)cc(Cl)c2Cl,-7.8201,15,45.0,3.117,-2.2246400000000005e-07,0.002341122038,-0.003995043763,0,15,321.3935187,0,0,5,7.0,0.0,229.0501213382008,432.012,180.129711
B-3104,Clc1ccc(c(Cl)c1)c2ccc(Cl)c(Cl)c2Cl,-7.62,15,45.0,1.551,-1.56164e-07,0.001667045766,-0.003343402671,0,15,321.3935187,0,0,5,8.0,0.0,229.18281932740703,420.375,180.69816
G-127,Clc1ccc(c(Cl)c1)c2c(Cl)ccc(Cl)c2Cl ,-7.43,15,45.0,0.99,-1.58922e-07,0.00187504116,-0.002394261341,0,15,321.3935187,0,0,5,9.0,0.001,229.093478671805,416.595,180.699443
B-4111,Clc1ccc(c(Cl)c1)c2cc(Cl)c(Cl)cc2Cl,-7.9503,15,45.0,13.205,-6.2356e-07,0.002340769291,-0.025601688632,0,16,321.3935187,0,0,2,6.0,0.0,230.7921176776668,418.487,180.744129
B-3138,Clc1ccc(c(Cl)c1)c2cc(Cl)cc(Cl)c2Cl,-7.82,15,45.0,3.238,-2.25382e-07,0.0022904975719999,-0.004177763122,0,15,321.3935187,0,0,6,8.0,-0.001,229.142131155639,431.64,180.091981
B-4110,Clc1ccc(Cl)c(c1)c2c(Cl)ccc(Cl)c2Cl,-7.1895,15,45.0,0.852,-1.41009e-07,0.001891172169,-0.002384063374,0,15,321.3935187,0,0,5,8.0,0.0,229.0080506018476,416.149,180.695508
B-2861,Clc1ccc(c(Cl)c1)c2c(Cl)cc(Cl)cc2Cl,-7.66,15,45.0,2.75,-2.39727e-07,0.002401023234,-0.0028845960239999,0,15,321.3935187,0,0,5,8.0,0.0,229.19163182535385,426.429,180.110669
B-4109,Clc1ccc(Cl)c(c1)c2cc(Cl)c(Cl)cc2Cl,-7.3263,15,45.0,0.83,-2.06054e-07,0.002070831622,-0.0016093628529999,0,15,321.3935187,0,0,4,8.0,0.0,229.3795472440916,426.028,180.827992
B-3046,Clc1ccc(Cl)c(c1)c2c(Cl)cc(Cl)cc2Cl,-7.47,15,45.0,5.88,-2.9486e-07,0.002002434571,-0.006129704162,0,15,321.3935187,0,0,5,7.0,-0.001,229.4631020693429,410.101,180.358083
C-818,ClC1=CC(=C(Cl)C=C1)C2=C(Cl)C(=C(Cl)C=C2)Cl,-7.91,15,45.0,1.392,-1.5109400000000004e-07,0.001711390773,-0.003337879306,0,15,321.3935187,0,0,5,7.0,0.0,229.1065781347725,420.413,180.714448
C-2230,ClC1=CC(=C(Cl)C(=C1)C2=C(Cl)C(=CC=C2)Cl)Cl,-6.96,15,45.0,2.315,-2.62519e-07,0.001894511365,-0.003564150215,0,16,321.3935187,0,0,3,6.0,0.0,229.1639997737477,410.922,180.655586
B-3057,Clc1cc(Cl)c(c(Cl)c1)c2cccc(Cl)c2Cl,-7.3999,16,45.0,3.303,-2.44857e-07,0.001971645895,-0.003783571752,0,15,321.3935187,0,0,4,7.0,-0.001,229.3224418950179,418.366,180.56546200000005
B-3011,Clc1cc(Cl)c(c(Cl)c1)c2c(Cl)cccc2Cl,-7.316,16,45.0,2.293,-2.19144e-07,0.001992448095,-0.003038792401,0,15,321.3935187,0,0,4,9.0,0.0,229.21138417420752,416.849,180.567463
C-794,ClC1=CC(=C(C=C1)C2=CC(=C(Cl)C(=C2)Cl)Cl)Cl,-8.55,15,45.0,4.646,-1.9906500000000002e-07,0.002210210866,-0.006618878254,0,15,321.3935187,0,0,6,8.0,0.0,229.2132201382029,434.241,179.973184
B-3170,Clc1ccc(Cl)c(c1)c2cc(Cl)c(Cl)c(Cl)c2,-7.3149,14,45.0,3.979,-1.96351e-07,0.002218626832,-0.006943537531,0,15,321.3935187,0,0,5,10.0,0.0,229.1691111204476,432.734,179.99686
B-3013,Clc1cc(Cl)c(c(Cl)c1)c2cc(Cl)cc(Cl)c2,-7.92,15,45.0,13.709,-5.94616e-07,0.0024316651,-0.025641859506,0,16,321.3935187,0,0,2,6.0,0.0,230.5140671368917,420.633,180.706258
B-3141,Clc1cc(Cl)cc(c1)c2cc(Cl)c(Cl)cc2Cl,-7.47,15,45.0,11.674,-6.9584e-07,0.00224783935,-0.023206898933,0,16,321.3935187,0,0,2,6.0,0.0,230.83867193605087,422.598,180.826123
B-3193,Clc1ccc(c(Cl)c1Cl)c2c(Cl)cccc2Cl,-6.7798,16,45.0,1.301,-1.7697e-07,0.001383750583,-0.003170700522,0,15,321.3935187,0,0,3,8.0,0.0,229.2780807820112,407.384,181.214831
B-4113,Clc1ccc(cc1Cl)c2c(Cl)ccc(Cl)c2Cl,-7.6499,15,45.0,3.811,-2.09205e-07,0.001707638131,-0.006614992962,0,15,321.3935187,0,0,4,10.0,0.0,229.21812223087144,407.115,180.934865
B-3203,Clc1cccc(c1)c2c(Cl)c(Cl)cc(Cl)c2Cl,-7.76,14,45.0,1.194,-3.42725e-07,0.001826590287,-0.00354230354,0,16,321.3935187,0,0,2,7.0,0.0,229.51434652624093,410.341,180.297166
B-3140,Clc1ccc(cc1)c2c(Cl)c(Cl)cc(Cl)c2Cl,-7.88,14,45.0,4.266,-4.665420000000001e-07,0.001858286446,-0.014756458335,0,15,321.3935187,0,0,2,7.0,0.0,230.39451066866695,408.701,181.392478
B-3205,Clc1ccc(cc1)c2c(Cl)cc(Cl)c(Cl)c2Cl,-7.95,14,45.0,3.54,-4.79957e-07,0.001787516176,-0.014563165983,0,15,321.3935187,0,0,2,7.0,0.0,230.4541312955464,407.104,181.411811
B-3204,Clc1ccc(cc1)c2cc(Cl)c(Cl)c(Cl)c2Cl,-7.3102,14,45.0,5.43,-4.81156e-07,0.001651409188,-0.015408230521,0,15,321.3935187,0,0,3,8.0,0.0,230.43088369257185,411.756,181.440422