Name,SMILES,Solubility,AtomNum,DegFreedom,Dipole,Ghb,Gsasa,Gsolv,HNum,LP,MolWt,NNum,ONum,PiCenters,PiDeloc,Quadrupole,Volume,SASA,Polarizabilty
F-401,COC1=CC=C(C(O)C(O)C2=CC=CC=C2)C=C1,-1.39,18,48.0,7.269,-0.002692614582,0.0057226837509999,-0.018264365056,0,5,228.1592533,0,3,16,13.0,-0.001,204.5039808497238,377.453,146.918325
A-1501,CC(C)Oc1ccc(cc1)[S](=O)(=O)c2ccc(O)cc2,-4.171445785,20,54.0,6.562,-0.009491366101,0.012860757676,-0.032347186103,0,10,276.22344560000005,0,4,10,14.0,-0.001,231.340258504972,438.979,170.245336
B-1706,CCCCCCCC(=O)Oc1c(Br)cc(cc1Br)C#N,-6.7023,18,54.0,1.986,-0.001812316831,-0.003815004388,-0.0258227428329999,0,12,385.9736071,1,2,10,12.0,0.0,251.49379611831387,513.394,193.595535
B-3284,CC(C)(C)C(O)\C(=C/c1ccc(Cl)cc1Cl)n2cncn2,-4.9115,19,57.0,4.131,-0.001324714579,6.0957601e-05,-0.016669011853,0,13,309.08642819999994,2,1,12,14.0,0.0,262.07984383609886,442.845,184.081881
B-3054,CCCC1COC(Cn2cncn2)(O1)c3ccc(Cl)cc3Cl,-3.4929,21,60.0,4.853,-0.000109316978,-0.003018411262,-0.0111417303469999,0,13,325.0858331,3,2,12,15.0,0.001,264.0591477859202,473.731,193.828081
C-685,CCCCC(C[N]1C=NC=N1)(C#N)C2=CC=C(Cl)C=C2,-3.31,19,54.0,13.863,-9.287123e-06,-0.007668910155,-0.0269518788059999,0,7,271.6407889,4,0,11,12.0,0.0,246.52348852838008,436.511,175.59944
C-2309,CCN1C=C(C(O)=O)C(=O)C2=C1N=C(N3CCNCC3)C(=C2)F,-2.92,23,63.0,20.626,-0.0058529984589999,0.010977992748,-0.054615378659,0,8,303.1844693,4,3,18,19.0,0.0,241.30779458630343,443.913,179.67599199999998
B-2015,C(Cc1ccccc1)NCc2ccccc2,-2.7229,16,42.0,0.314,-1.12947e-06,-0.005887916759,-0.0171078904599999,0,0,194.1677417,1,0,12,13.0,-0.001,187.371828956543,385.985,140.042992
A-416,Cc1ccccc1NC(N)=Nc2ccccc2C,-3.533884584,18,48.0,4.197,-5.899707e-06,-0.006924876763,-0.012688836419,0,4,222.1811481,3,0,10,13.0,0.0,222.86667936266392,355.083,151.140292
B-44,CN(C)c1ccc(cc1)N=Nc2cccc(C)c2,-5.7769,18,48.0,5.863,-2.050617e-06,-0.007094412928,-0.01327445262,0,6,222.1811481,3,0,5,11.0,0.0,214.99470175499,418.983,152.964641
F-856,CN=C(NC)N1CC2=CC=CC3=CC=CC(=C32)C1,-1.15,18,48.0,5.724,-1.7225319999999998e-06,-0.005875579503,-0.010145173631,0,4,222.1811481,3,0,10,12.0,0.001,204.71162831154663,381.801,155.617675
B-3146,COc1ccc(NC(=N)Nc2ccc(OC)cc2)cc1,-2.7345,20,54.0,8.386000000000001,-0.000128173927,-0.006998243919,-0.04219857302,0,4,254.179958,3,2,16,13.0,0.0,230.5911142891969,410.156,165.148414
F-591,N#CCCN(CCC#N)C(CC1=CC=C(O)C=C1)C(=O)O,-1.68,21,57.0,2.998,-0.003166615922,0.001825773892,-0.033621077328,0,6,270.17936289999994,3,3,26,18.0,0.0,243.3234441696999,474.56,165.168195
B-3382,COC(=O)c1ccccc1[S](=O)(=O)NC(=O)N(C)c2nc(C)nc(OC)n2,-3.8981,27,75.0,11.204,-0.004397266702,0.003358396003,-0.04238318251,0,12,378.2557715,5,6,29,22.0,0.0,316.51839494333456,513.686,220.471738
B-3413,C=CCN(CC=C)C(=O)COC(=O)c1ccccc1,-2.5626,19,51.0,8.118,-0.002573617209,0.002744435881,-0.02304302523,0,7,242.1659565,1,3,18,15.0,0.001,223.21678279949435,420.152,156.754413
C-2049,COC(=O)C1CCCN1C(=O)COC(=O)C2=CC=CC=C2,-2.08,21,57.0,3.026,-0.0027354394399999,0.00907666365,-0.011528779873,0,9,274.1647663,1,5,19,17.0,0.0,235.9228302212226,464.486,164.78688799999998
B-3443,COC(=O)[C@@H]1CCCN1C(=O)COC(=O)c2ccccc2,-2.0841,21,57.0,2.4,-0.003992449578,0.007372459074,-0.025416917623,0,10,274.1647663,1,5,17,18.0,0.0,237.1966328385128,425.168,163.431656
C-1336,CC(=O)OC1=CC=CC=C1C(=O)OCC(=O)N2CCOCC2,-1.8,22,60.0,10.286,-0.00310728928,0.007654201665,-0.023816653728,0,11,290.1641712,1,6,16,16.0,0.001,248.89513730434712,436.272,169.55957
C-1377,CCOC(=O)CNC(=O)COC(=O)C1=CC=CC=C1OC(C)=O,-1.87,23,63.0,21.843000000000004,-0.0031882148249999,0.012152554162,-0.051999493034,0,14,306.16357610000006,1,7,19,14.0,0.0,258.74569405180114,478.925,176.283682
B-997,CC(C)c1ccc(C)c2ccc(C)c2c1,-5.4752,15,39.0,2.408,-1.918078e-06,-0.004851315947,-0.007382381247,0,4,180.1610385,0,0,10,11.0,0.0,191.67316775341143,338.289,131.288005
C-1438,CC(C)OC1=C(Cl)C=C(Cl)C(=C1)N2N=C(OC2=O)C(C)(C)C,-5.54,21,60.0,8.536,-0.002125553861,0.005318175272,-0.017879135904,0,12,327.0785348,2,3,10,13.0,0.0,271.6895237499903,452.565,187.469181
B-3341,CC(C1CC1)C(O)(Cn2cncn2)c3ccc(Cl)cc3,-3.3189,19,54.0,4.132,-0.0007464063719999,-0.001815187281,-0.012546103304,0,9,273.6334906,3,1,8,11.0,-0.001,234.278981128042,394.877,165.672149
B-3283,CC(C)(C)C(O)\C(=C/c1ccc(Cl)cc1)n2cncn2,-4.5403,19,54.0,13.011,-0.001641038791,-0.000484702906,-0.0263984209629999,0,9,273.6334906,3,1,14,12.0,0.0,242.81248192170253,437.681,170.522771
B-3282,CC(C)(C)[C@H](O)\C(=C/c1ccc(Cl)cc1)n2cncn2,-4.5403,19,54.0,13.038,-0.001643691133,-0.0004703015969999,-0.026411009638,0,9,273.6334906,3,1,14,13.0,-0.001,242.8080824616613,437.664,170.52158300000002
B-3493,OC1(CCCCCC1n2cncn2)c3ccc(Cl)cc3,-3.3681,19,54.0,4.558,-0.002316919738,-0.001283668258,-0.019187127515,0,7,273.6334906,3,1,14,14.0,0.0,165.72955570467008,481.744,171.498185
A-5032,Cc1cc(Cc2ccc(N)c(C)c2)ccc1N,-4.150608709,17,45.0,2.75,-1.0873143e-05,-0.010407486076,-0.03209407304,0,4,208.1744449,2,0,14,10.0,0.0,176.70001924916176,456.2480000000001,149.334439
B-4308,CCOC(=O)[C@H](Cc1c[nH]c2ccccc12)N(C)C=O,-2.2709,20,54.0,13.877,-0.003032278557,0.00305895199,-0.033623629092,0,6,256.1726597,2,3,18,16.0,0.0,224.7803181081156,435.391,162.54724299999998
F-511,CCC1(CC)C(=O)N(C2=CC=CC=C2)N=C1OC(C)=O,-3.54,20,54.0,11.33,-0.0006861930379999,0.000684929393,-0.023052934272,0,5,256.1726597,2,3,17,17.0,0.0,226.7871637769146,420.331,161.765378
B-3246,CCC1(C(=O)NC(=O)N(CC(O)CO)C1=O)c2ccccc2,-1.7872,22,60.0,10.677,-0.004164281522,0.015534323366,-0.029753903472,0,6,288.1714695,2,5,25,16.0,0.001,241.53138164870217,429.032,170.90284599999998
B-989,CCC(C)c1cc(cc(c1OC(=O)C=C(C)C)[N+]([O-])=O)[N+]([O-])=O,-5.5083,23,63.0,4.912,-0.007839702591,0.019295324949,-0.03240455474,0,14,304.1708744,2,6,18,16.0,0.0,263.2321241500761,477.582,178.774684
C-1344,CC1=CC(=NC(=N1)NN=C(C)C2=CC=CC=C2C)C,-3.2,19,51.0,9.8,-4.6831970000000005e-06,-0.006917564128,-0.0154990646359999,0,4,236.18785130000003,4,0,10,13.0,0.0,247.4109817165004,357.872,160.52555800000002
B-3312,Cc1cc(C)nc(N\N=C(\C)c2ccccc2C)n1,-3.1959,19,51.0,5.502000000000001,-3.697776e-06,-0.0083068411289999,-0.0125333074389999,0,2,236.18785130000003,4,0,19,17.0,0.001,238.19669076920255,421.259,160.258702
F-845,CN(C)NC(=N)N1CC2=CC=CC3=CC=CC(=C32)C1,-1.07,19,51.0,7.087999999999999,-6.186826e-06,-0.007981639482,-0.01736950907,0,5,236.18785130000003,4,0,9,12.0,0.0,226.38115172505425,362.486,159.544801
C-810,COC12C(COC(N)=O)C3=C(N1CC4NC24)C(=O)C(=C(N)C3=O)C,-2.56,24,66.0,1.577,-0.003435934828,0.0096722403799999,-0.018105050857,0,10,316.18487589999995,4,5,24,17.0,0.0,256.30316247175585,469.04,186.635157
B-3490,CCOc1ccccc1O[S](=O)(=O)NC(=O)Nc2nc(OC)cc(OC)n2,-4.1853,27,75.0,22.183000000000003,-0.010217593515,0.0075146332849999,-0.095481727155,0,16,380.2484732,4,7,21,18.0,0.0,297.3296850627264,479.719,219.546023
C-2517,COC1=NC(=NC(=C1)OC)NC(=O)N[S](=O)(=O)C2=NC=CC=C2C(=O)N(C)C,-3.97,28,78.0,21.084,-0.007650735579,0.0031949962589999,-0.072413882324,0,19,392.2624747,6,6,15,14.0,0.0,317.6205203200379,540.687,225.501818
E-955,O=C(OC(C(C(C=CC1=O)(CC2)C)=C1C)C23)C3C,-3.09,18,48.0,3.579,-0.003690724773,0.009841030501,-0.013363854254,0,6,228.1592533,0,3,13,12.0,-0.001,211.0362221847624,360.901,144.835847
D-1917,CC(=C)[C@@H]1[C@H]2OC(=O)[C@@H]1[C@]3(O)[C@H]4O[C@H]4[C@]5(CO5)[C@]3(C)[C@@H]2O,-1.19,21,57.0,6.023,-0.00479852032,0.021748085171,-0.019546596349,0,14,276.157468,0,6,15,12.0,0.0,222.8708523087901,412.51,157.447676
D-1932,CC(=C)C1(O)[C@H]2OC(=O)[C@@H]1[C@]3(O)[C@H]4O[C@H]4[C@]5(CO5)[C@]3(C)[C@@H]2O,-1.42,22,60.0,6.676,-0.004861821129,0.024774931238,-0.013493397135,0,14,292.1568729,0,7,17,17.0,0.0,242.02395176394077,407.853,162.491999
B-3221,CC(C)(C)C(O)C(Cc1ccc(Cl)cc1Cl)n2cncn2,-4.5619,19,57.0,6.3870000000000005,-0.000188979613,-0.002545320437,-0.01352788933,0,13,309.08642819999994,2,1,16,14.0,0.0,261.1664309487556,453.049,184.676282
B-2782,CN(C)C(=O)Nc1ccc(N2N=C(OC2=O)C(C)(C)C)c(Cl)c1,-4.3258,22,63.0,15.72,-0.002435585447,0.00389234902,-0.032571720546,0,13,319.6390037,4,3,17,15.0,0.0,272.7264616851925,485.115,184.955116
B-3539,CC(C)OC(=O)C1(CCCC1)[S](=O)(=O)c2ccc(Cl)cc2,-4.6498,20,57.0,6.6,-0.0071638863359999,0.00880065595,-0.034215885518,0,12,311.6763832,0,4,15,15.0,-0.001,252.697578253396,430.105,184.944326
A-50,C[N+](C)(CCCN[S](=O)(=O)CCC(F)(F)C(F)(F)C(F)(F)C(F)(F)C(F)(F)C(F)(F)F)CC([O-])=O,-4.057185148,35,99.0,18.904,-0.015588158009,0.0356048472,-0.106204535169,0,49,551.2160931,2,4,17,10.0,0.001,360.3856907903096,634.306,220.045169
C-2124,CCCN1CCN2C(=O)C3=C(C=CC=C3)N=C2C1C,-2.31,19,51.0,5.5520000000000005,-0.001917468173,-0.0024940592679999,-0.021654809822,0,5,238.180553,3,1,16,13.0,0.0,212.4640111070379,424.294,161.706972
C-2142,CCN1CC(C)N2C(=O)C3=C(C=CC=C3)N=C2C1C,-2.46,19,51.0,4.607,-0.001673706254,-0.001301151568,-0.01789030506,0,6,238.180553,3,1,14,15.0,0.0,212.6544094630113,383.158,160.693997
B-3259,CCc1cnc(C2=NC(C)(C(C)C)C(=O)N2)c(c1)C(O)=O,-2.3153,21,57.0,13.338,-0.005653313912,0.007540788129,-0.055467964686,0,8,270.17936289999994,3,3,19,16.0,0.0,252.98564720080336,461.289,170.913674
B-3436,COCc1cnc(C2=NC(C)(C(C)C)C(=O)N2)c(c1)C(O)=O,-1.84,22,60.0,12.189,-0.006444698053,0.006895723525,-0.072765149948,0,8,286.1787678,3,4,21,19.0,0.001,262.21379545764955,484.711,176.303661
B-3343,COCCOc1ccccc1[S](=O)(=O)NC(=O)Nc2nc(OC)nc(OC)n2,-3.5372,28,78.0,8.624,-0.005707875441,0.0045414293,-0.05880705173,0,15,394.2551764,5,7,22,20.0,-0.001,311.1622338405585,484.355,225.19257
D-1708,CN1C2CCC1CC(C2)OC(=O)c3ccccc3,-2.369,18,48.0,4.791,-0.001404439878,-0.001082590917,-0.011479781676,0,4,226.1665516,1,2,15,13.0,0.0,202.867665212024,395.966,150.65444399999998
B-3440,O=C(COC(=O)c1ccccc1)N2CCCCCC2,-2.5421,19,51.0,7.892,-0.003139643679,0.003444620417,-0.02209780921,0,6,242.1659565,1,3,18,14.0,0.001,212.6010408304597,401.397,154.63708300000002
C-1909,O=C(COC(=O)C1=CC=CC=C1)NC2CCCCC2,-3.9,19,51.0,6.525,-0.002788336835,0.003963980403,-0.024885514015,0,5,242.1659565,1,3,16,14.0,0.0,217.5365629901333,424.345,154.28092
A-4591,C1OC1COc2cccc(c2)N(CC3CO3)CC4CO4,-2.192561189,20,54.0,4.7780000000000005,-0.001340109003,0.009657373316,-0.00834989261,0,9,258.1653614,1,4,19,16.0,0.0,211.1495825081434,459.066,159.193305
A-3910,C1OC1COc2ccc(cc2)N(CC3CO3)CC4CO4,-1.919234725,20,54.0,5.246,-0.0017313973579999,0.013634885644,-0.0062020435679999,0,5,258.1653614,1,4,17,19.0,-0.001,216.6158269892158,463.48,161.236205
C-1319,CCN(CC)C(=O)COC(=O)C1=CC=CC=C1OC(C)=O,-2.11,21,57.0,10.008,-0.001599317441,0.007638554176,-0.019555424989,0,12,274.1647663,1,5,14,16.0,0.0,244.50300293215724,442.173,167.934042
C-1374,CC(C)(C)C(O)C(CC1=CC=C(Cl)C=C1)[N]2C=NC=N2,-4.05,19,54.0,7.943,-0.001750545474,0.000304403695,-0.019847114419,0,7,273.6334906,3,1,10,13.0,0.0,244.29196324348968,427.713,169.313369
C-1951,CCC(CC)(C(=O)NC(N)=O)C(=O)OCC1=CC=CC=C1,-3.66,21,57.0,9.332,-0.001969637818,0.007166287573,-0.020487602986,0,8,272.1720646,2,4,19,13.0,0.0,245.64501446592823,461.383,166.79705
E-956,O=C(NC(CCCC1)C1)NS(=O)(=O)c(ccc(c2)C(=O)C)c2,-2.06,22,60.0,10.174,-0.010183615662,0.015037863458,-0.052032182114,0,10,304.236852,2,4,14,14.0,0.0,261.99358966444834,443.732,185.938939
F-692,CC(C)CNCC1=CC=C(S(=O)(=O)C2=CSC(S(N)(=O)=O)=C2)C=C1,-1.16,23,66.0,4.601,-0.014862464389,0.014690453615,-0.053773426866,0,16,368.3664268,2,4,10,14.0,0.0,299.9338818562499,535.45,228.40624
F-907,CC(C)(C)NCC1=CC=C(S(=O)(=O)C2=CSC(S(N)(=O)=O)=C2)C=C1,-1.98,23,66.0,4.453,-0.013845648714,0.014574939204,-0.046489411047,0,14,368.3664268,2,4,16,12.0,0.0,300.19145782220335,490.027,221.448851
F-908,CCCCNCC1=CC=C(S(=O)(=O)C2=CSC(S(N)(=O)=O)=C2)C=C1,-1.68,22,66.0,13.785,-0.01683062378,0.015265799585,-0.0702819130229999,0,12,368.3664268,1,4,14,17.0,0.001,291.4785468700644,523.9490000000001,230.252408
F-911,CCC(C)NCC1=CC=CC(S(=O)(=O)C2=CSC(S(N)(=O)=O)=C2)=C1,-1.33,23,66.0,4.069,-0.0153181642189999,0.015341287235,-0.05472431511,0,17,368.3664268,2,4,13,11.0,0.0,293.7552514117647,532.568,227.034438
F-1149,CC1NC(=O)C2=C(C=CC=C2)N(CC(O)C(O)C(O)CO)C1=O,-1.51,23,63.0,12.242,-0.006101492024,0.0216417134159999,-0.029074662866,0,10,304.1708744,2,6,21,18.0,0.0,253.64889143372108,435.573,176.109377
C-2298,CCCC(=O)OCSC1=NC=NC2=C1N=C[N]2COC(=O)CCC,-3.71,24,66.0,3.572,-0.0023819180249999,0.006164154093,-0.015347952004,0,11,332.2502584,4,4,24,17.0,0.0,292.4686567669132,576.942,204.854759
C-901,CCCC(=O)OCN1C=NC2=C(C=N[N]2COC(=O)CCC)C1=O,-3.83,24,66.0,8.003,-0.003036668016,0.013232700355,-0.011573399097,0,9,316.18487589999995,4,5,32,22.0,0.0,248.4443611889008,524.487,184.016369
C-1427,CCCC(=O)OC[N]1C=C2C(=O)N(COC(=O)CCC)C=NC2=N1,-3.55,24,66.0,3.921,-0.003599733594,0.014102757076,-0.023622594235,0,7,316.18487589999995,4,5,26,18.0,0.001,0.5174066537251409,504.857,186.922978
A-191,COc1ccc(\C=C\C(=O)OCCC(C)C)cc1,-5.49192521,18,48.0,21.311,-0.0023134606839999,0.001365787714,-0.035130939213,0,6,228.1592533,0,3,16,15.0,0.0,213.39202542177867,445.21,150.227401
F-1163,CC1=C2C(O)C3C(CC(C)C2CC1=O)OC(=O)C3C,-1.95,19,51.0,15.07,-0.004418161186,0.01512067908,-0.025065289862,0,7,244.1586582,0,4,11,15.0,0.0,231.80986062606544,387.216,153.045613
B-942,C[C@H]1C[C@H]2OC(=O)[C@@H](C)[C@H]2[C@H](O)C3=C(C)C(=O)C[C@H]13,-1.945,19,51.0,8.796,-0.004106242621,0.010433407804,-0.0218638134079999,0,8,244.1586582,0,4,7,12.0,0.001,210.7417408027346,350.292,151.558336
C-626,CC(C)OC(=O)C1(CCC1)[S](=O)(=O)C2=CC=C(C)C=C2,-3.34,20,54.0,5.125,-0.00712524857,0.0080209153689999,-0.034250811745,0,9,276.22344560000005,0,4,14,14.0,-0.001,237.2593063013118,409.969,168.59276
C-644,COC(=O)C1(CCCCC1)[S](=O)(=O)C2=CC=C(C)C=C2,-4.61,20,54.0,4.806,-0.006131228796,0.006480849655,-0.028644884253,0,9,276.22344560000005,0,4,14,16.0,0.0,244.1156321543084,401.783,174.391751
A-665,CCC(COC(=O)C=C)(COC(=O)C=C)COC(=O)C=C,-2.772789495,21,57.0,7.882999999999999,-0.001038624146,0.0055229079169999,-0.017347507106,0,12,276.157468,0,6,16,16.0,-0.001,265.11581199039654,489.461,167.41149
F-663,CCCCCCCCOC(=O)C1=CC(Br)=C(O)C=C1,-4.52,18,51.0,4.925,-0.003814719232,0.006047444569,-0.022796340396,0,9,308.06278100000003,0,3,13,14.0,0.0,228.0380327984845,485.414,168.305711
C-1340,CCCCCCC(C)OC(=O)COC1=NC(=C(Cl)C(=C1Cl)N)F,-6.43,21,63.0,8.404,-0.0016662875339999,0.0038436810159999,-0.025538431529,0,17,346.076938,1,3,12,15.0,0.001,275.4653645172284,511.851,195.661824
F-662,CCCCCCCCOC(=O)C1=CC(Cl)=C(O)C=C1,-4.38,18,51.0,5.085,-0.003798589725,0.007837817725,-0.02124301879,0,9,263.6121908,0,3,13,15.0,0.0,225.4911859094621,477.287,161.788962
F-1184,CC(C)C(NS(=O)(=O)C1=CC=C(F)C=C1)C(=O)NC1CCOC1O,-2.38,24,66.0,7.926,-0.006491766321,0.016786901078,-0.037691390862,0,13,339.23466010000004,2,5,19,17.0,0.0,273.8528760740343,489.989,196.502577
F-664,CCCCCCCCOC(=O)C1=CC(I)=C(O)C=C1,-4.67,18,51.0,4.766,-0.00382567366,0.003892803085,-0.024361284131,0,9,355.0637252,0,3,13,12.0,0.001,236.42550601981532,497.544,179.543727
B-1019,CC1CC(CC(C)(C)N1)OC(=O)c2ccccc2,-1.922,18,48.0,5.792999999999999,-0.001277440375,-0.000584648172,-0.018093943993,0,5,226.1665516,1,2,14,13.0,0.0,217.30079629997877,401.338,150.02293899999998
B-63,CCOC(=O)C1(CCN(C)CC1)c2ccccc2,-1.8861,18,48.0,8.797,-0.00014689624,-0.003138135337,-0.016508355049,0,4,226.1665516,1,2,11,15.0,0.0,215.9565206093629,380.405,149.088826
A-1585,CSc1ccc(cc1)C(=O)C(C)(C)N2CCOCC2,-4.193381143,19,51.0,2.273,-0.000283736391,0.002220138152,-0.002192628519,0,5,258.231339,1,2,10,13.0,0.0,239.0918845245725,398.21,171.319605
F-1202,CC(C)CC1OC(O)C(CC2=CC=CC=C2)NC1=O,-2.12,19,51.0,10.142,-0.003575966881,0.0054647539969999,-0.021694343864,0,8,242.1659565,1,3,15,11.0,0.0,220.5060594540422,424.17,155.486695
C-1263,CC(C)N(C(C)C)C(=O)COC(=O)C1=CC=CC=C1,-3.34,19,51.0,7.548999999999999,-0.002254466429,0.002383807385,-0.018592125491,0,6,242.1659565,1,3,15,12.0,0.0,240.3129898434424,426.565,155.408233
B-3449,CCCCCCNC(=O)COC(=O)c1ccccc1,-3.902,19,51.0,2.259,-0.002874069062,0.003068753864,-0.019789839924,0,6,242.1659565,1,3,17,15.0,0.0,219.2891271731725,449.533,156.133016
B-3411,CCCN(CCC)C(=O)COC(=O)c1ccccc1,-2.3791,19,51.0,8.273,-0.002583125657,0.0028170978889999,-0.023038593857,0,7,242.1659565,1,3,18,15.0,-0.001,223.2159907472436,418.461,156.75698
C-1318,COCC(=O)N(C(C)C(=O)OC)C1=C(C)C=CC=C1C,-1.6,20,54.0,3.512,-0.0008320603019999,0.006193459393,-0.004603635958,0,7,258.1653614,1,4,13,12.0,0.0,258.8067398520523,391.281,158.571065
C-1963,CCCCCCOC(=O)OC1=CC=C(NC(C)=O)C=C1,-4.32,20,54.0,5.409,-0.001730434803,0.005345452224,-0.006049137561,0,8,258.1653614,1,4,20,16.0,0.0,229.7916664070104,468.42,159.410848
C-1984,NC(CC1=CC(=C(O)C=C1)O)C(=O)OC2CCCCC2,-1.27,20,54.0,10.861,-0.002764753787,0.007962911544,-0.015424227143,0,5,258.1653614,1,4,17,18.0,0.0,229.54024792624324,430.641,159.041664
C-1976,CC(O)CN(CC(C)O)C(=O)COC(=O)C1=CC=CC=C1,-1.18,21,57.0,5.92,-0.003500413602,0.012176097903,-0.016058012549,0,9,274.1647663,1,5,18,15.0,0.0,240.0590275801851,445.567,163.084853
C-1280,COCCN(CCOC)C(=O)COC(=O)C1=CC=CC=C1,-1.57,21,57.0,5.94,-0.003276261981,0.003324573113,-0.030896208829,0,7,274.1647663,1,5,16,13.0,0.0,250.1083570205819,414.835,166.42431100000002
B-3068,CC(C)(SC(=O)N1CCCCC1)c2ccccc2,-4.1196,18,48.0,4.322,-0.001069637726,0.002183071117,-0.00645798306,0,6,242.231934,1,1,13,14.0,0.001,228.93116746578377,381.453,166.391779
B-3218,CC(C)(C)C(Br)C(=O)NC(C)(C)c1ccccc1,-4.9455,18,48.0,7.737999999999999,-8.7270484e-05,-0.004112037462,-0.018312410811,0,6,290.0706744,1,1,9,11.0,-0.001,244.15528536211585,394.543,165.247344
B-2645,CC(C)COCN(C(=O)CCl)c1c(C)cccc1C,-3.6822,18,51.0,8.637,-0.001116824192,0.002209897034,-0.01984769908,0,9,261.6194891,1,2,13,12.0,0.0,254.7326941106932,426.574,163.647565
B-2920,CCc1cccc(C)c1N(C(C)COC)C(=O)CCl,-2.7287,19,51.0,5.837999999999999,-0.000946862984,-9.655003e-06,-0.0200705126389999,0,7,261.6194891,1,2,13,13.0,0.0,238.74484859962945,386.519,163.559146
B-3298,CCc1cccc(C)c1N(COC(C)C)C(=O)CCl,-3.1882,19,51.0,2.228,-3.987743e-05,0.001170723999,-0.022196876283,0,8,261.6194891,1,2,9,12.0,0.0,243.8421805340309,404.395,167.198016
C-1908,CN1CCCCC1C(=O)NC2=C(C)C=CC=C2C,-1.99,18,48.0,11.345999999999998,-0.003134353824,-0.00053040342,-0.029480174981,0,4,224.17384980000003,2,1,11,13.0,0.0,223.4197840232609,359.582,147.575876
C-1948,CCN(CC)CCOC(=O)C1=CC=C(NC(C)=O)C=C1,-1.65,20,54.0,10.272,-0.001988400511,0.003061127584,-0.017702914718,0,7,256.1726597,2,3,19,19.0,0.0,233.54535403405396,474.237,162.364812
F-572,CC(C)CC(N)C(=O)NC(CC1=CC=C(O)C=C1)C(=O)O,-1.58,21,57.0,3.036,-0.003312841089,0.009473779279,-0.014717369099,0,8,272.1720646,2,4,22,16.0,0.0,246.9530692479905,456.669,163.030204
F-576,CC(C)CC(NC(=O)C(N)CC1=CC=C(O)C=C1)C(=O)O,-2.07,21,57.0,5.138,-0.003518665855,0.008360367462,-0.0192738992809999,0,9,272.1720646,2,4,17,15.0,0.0,246.6003125021685,472.36300000000006,163.473723
B-2989,CCCn1cnc2N(C)C(=O)N(CCCCC(C)=O)C(=O)c12,-0.9811,22,60.0,3.0380000000000003,-0.003584043867,0.007140449945,-0.019550146229,0,9,284.1860661,4,3,13,15.0,0.0,251.4439689296124,481.224,178.250775
A-2136,CCCCC(CC)COC(=O)c1ccccc1,-5.767784581,17,45.0,5.353,-0.001253527335,-0.000852302921,-0.01653374382,0,5,212.1598483,0,2,10,12.0,0.0,204.81521320781096,413.596,144.848064
A-2460,CC(C)(C)c1cc(C(O)=O)c(O)c(c1)C(C)(C)C,-4.869471103,18,48.0,2.583,-0.002416300394,0.009512634166,-0.011308448036,0,7,228.1592533,0,3,15,13.0,0.001,226.68694064695,401.989,141.637014
B-1641,CCCCCCCCOC(=O)c1ccc(O)cc1,-4.2224,18,48.0,6.063,-0.00404346909,0.0067719182909999,-0.019246384659,0,6,228.1592533,0,3,14,15.0,0.0,208.17592728384884,443.934,146.016317
F-697,CC1=CC2OC3CC(O)C(C)(C2(CO)CC1)C31CO1,-2.61,19,51.0,3.236,-0.0027245063339999,0.011560771213,-0.008224248333,0,8,244.1586582,0,4,16,13.0,-0.001,203.55749521913955,384.453,149.116209
B-1588,CCCCCCCCOC(=O)c1cc(O)c(O)c(O)c1,-3.8945,20,54.0,17.224,-0.005538353781,0.017395090164,-0.02916264451,0,8,260.1580631,0,5,20,15.0,0.0,222.89771825426695,470.967,159.16073
B-979,OC[C@H]1O[C@@H](O[C@@H]2OC=C[C@H]3[C@H](O)C=C(CO)[C@@H]23)[C@H](O)[C@@H](O)[C@@H]1O,0.0119,24,66.0,13.496,-0.007102125958,0.028685418724,-0.056503206735,0,14,324.1556828,0,9,18,17.0,0.001,239.35270493767445,445.746,176.566624